 Entering Gaussian System, Link 0=g16
 Initial command:
 /nopt/nrel/apps/gaussian/G16.sandy/g16/l1.exe "/scratch/ykim/gaussianScratch.5606376/Gau-6653.inp" -scrdir="/scratch/ykim/gaussianScratch.5606376/"
 Default linda workers: n1018
 Default is to use  24 SMP processors on each worker.
 Entering Link 1 = /nopt/nrel/apps/gaussian/G16.sandy/g16/l1.exe PID=      6654.
  
 Copyright (c) 1988,1990,1992,1993,1995,1998,2003,2009,2016,
            Gaussian, Inc.  All Rights Reserved.
  
 This is part of the Gaussian(R) 16 program.  It is based on
 the Gaussian(R) 09 system (copyright 2009, Gaussian, Inc.),
 the Gaussian(R) 03 system (copyright 2003, Gaussian, Inc.),
 the Gaussian(R) 98 system (copyright 1998, Gaussian, Inc.),
 the Gaussian(R) 94 system (copyright 1995, Gaussian, Inc.),
 the Gaussian 92(TM) system (copyright 1992, Gaussian, Inc.),
 the Gaussian 90(TM) system (copyright 1990, Gaussian, Inc.),
 the Gaussian 88(TM) system (copyright 1988, Gaussian, Inc.),
 the Gaussian 86(TM) system (copyright 1986, Carnegie Mellon
 University), and the Gaussian 82(TM) system (copyright 1983,
 Carnegie Mellon University). Gaussian is a federally registered
 trademark of Gaussian, Inc.
  
 This software contains proprietary and confidential information,
 including trade secrets, belonging to Gaussian, Inc.
  
 This software is provided under written license and may be
 used, copied, transmitted, or stored only in accord with that
 written license.
  
 The following legend is applicable only to US Government
 contracts under FAR:
  
                    RESTRICTED RIGHTS LEGEND
  
 Use, reproduction and disclosure by the US Government is
 subject to restrictions as set forth in subparagraphs (a)
 and (c) of the Commercial Computer Software - Restricted
 Rights clause in FAR 52.227-19.
  
 Gaussian, Inc.
 340 Quinnipiac St., Bldg. 40, Wallingford CT 06492
  
  
 ---------------------------------------------------------------
 Warning -- This program may not be used in any manner that
 competes with the business of Gaussian, Inc. or will provide
 assistance to any competitor of Gaussian, Inc.  The licensee
 of this program is prohibited from giving any competitor of
 Gaussian, Inc. access to this program.  By using this program,
 the user acknowledges that Gaussian, Inc. is engaged in the
 business of creating and licensing software in the field of
 computational chemistry and represents and warrants to the
 licensee that it is not a competitor of Gaussian, Inc. and that
 it will not use this program in any manner prohibited above.
 ---------------------------------------------------------------
  

 Cite this work as:
 Gaussian 16, Revision A.03,
 M. J. Frisch, G. W. Trucks, H. B. Schlegel, G. E. Scuseria, 
 M. A. Robb, J. R. Cheeseman, G. Scalmani, V. Barone, 
 G. A. Petersson, H. Nakatsuji, X. Li, M. Caricato, A. V. Marenich, 
 J. Bloino, B. G. Janesko, R. Gomperts, B. Mennucci, H. P. Hratchian, 
 J. V. Ortiz, A. F. Izmaylov, J. L. Sonnenberg, D. Williams-Young, 
 F. Ding, F. Lipparini, F. Egidi, J. Goings, B. Peng, A. Petrone, 
 T. Henderson, D. Ranasinghe, V. G. Zakrzewski, J. Gao, N. Rega, 
 G. Zheng, W. Liang, M. Hada, M. Ehara, K. Toyota, R. Fukuda, 
 J. Hasegawa, M. Ishida, T. Nakajima, Y. Honda, O. Kitao, H. Nakai, 
 T. Vreven, K. Throssell, J. A. Montgomery, Jr., J. E. Peralta, 
 F. Ogliaro, M. J. Bearpark, J. J. Heyd, E. N. Brothers, K. N. Kudin, 
 V. N. Staroverov, T. A. Keith, R. Kobayashi, J. Normand, 
 K. Raghavachari, A. P. Rendell, J. C. Burant, S. S. Iyengar, 
 J. Tomasi, M. Cossi, J. M. Millam, M. Klene, C. Adamo, R. Cammi, 
 J. W. Ochterski, R. L. Martin, K. Morokuma, O. Farkas, 
 J. B. Foresman, and D. J. Fox, Gaussian, Inc., Wallingford CT, 2016.
 
 ******************************************
 Gaussian 16:  ES64L-G16RevA.03 25-Dec-2016
                 9-Sep-2018 
 ******************************************
 %chk=Al_TS_sugar_M06L.chk
 %nprocshared=24
 Will use up to   24 processors via shared memory.
 %mem=24GB
 SetLPE:    new flags="-opt 'Tsnet.Node.lindarsharg: ssh'  -nodelist 'n1018.hpc.nrel.gov' -env GAUSS_MDEF=3221225472 -env GAUSS_EXEDIR="/nopt/nrel/apps/gaussian/G16.sandy/g16/bsd:/nopt/nrel/apps/gaussian/G16.sandy/g16/local:/nopt/nrel/apps/gaussian/G16.sandy/g16/extras:/nopt/nrel/apps/gaussian/G16.sandy/g16""
 Will use up to    1 processors via Linda.
 Default route: CacheSize=327680 MaxDisk=128GB
 ----------------------------------------------------------------------
 # m06l/6-311+g(d,p) scf=(xqc,maxconventionalcycles=400) scrf=(smd,solv
 ent=1,4-dioxane) temperature=443.15
 ----------------------------------------------------------------------
 1/4=327680,38=1,112=443150,172=1/1;
 2/4=327680,12=2,17=6,18=5,40=1/2;
 3/4=327680,5=4,6=6,7=111,11=2,25=1,30=1,70=32201,72=31,74=-53/1,2,3;
 4/4=327680/1;
 5/4=327680,5=2,8=3,13=1,38=5,53=31,85=400/2,8;
 6/4=327680,7=2,8=2,9=2,10=2,28=1/1;
 99/4=327680,5=1,9=1/99;
 -------------------
 Title Card Required
 -------------------
 Symbolic Z-matrix:
 Charge =  0 Multiplicity = 1
 O                    -1.47479   1.1026    0.29061 
 C                    -0.30015   0.91601  -0.20101 
 H                     0.27879   1.77842  -0.54691 
 O                    -0.17216  -1.35887   0.37628 
 C                     0.40762  -0.30954  -0.16195 
 H                    -0.29593   0.17473  -1.28262 
 C                     1.8411   -0.46421  -0.61477 
 H                     2.05868   0.24805  -1.42018 
 C                     2.76623  -0.16619   0.58549 
 H                     2.45768  -0.82214   1.41424 
 C                     4.23755  -0.47635   0.272 
 H                     4.30984  -1.54235   0.0153 
 C                     4.80966   0.33231  -0.8757 
 H                     5.84549   0.02194  -1.05433 
 H                     4.25661   0.15279  -1.80111 
 O                     4.73916   1.73493  -0.61984 
 H                     5.37606   1.91813   0.08122 
 O                     5.05912  -0.15964   1.38703 
 H                     4.6575   -0.51052   2.18849 
 O                     2.54223   1.15561   1.0092 
 H                     3.16381   1.71311   0.51237 
 O                     2.04001  -1.81122  -1.01626 
 H                     1.80138  -1.90908  -1.94551 
 H                     0.32864  -2.15136   0.1041 
 
                          Input orientation:                          
 ---------------------------------------------------------------------
 Center     Atomic      Atomic             Coordinates (Angstroms)
 Number     Number       Type             X           Y           Z
 ---------------------------------------------------------------------
      1          8           0       -1.474794    1.102603    0.290606
      2          6           0       -0.300151    0.916014   -0.201006
      3          1           0        0.278785    1.778420   -0.546913
      4          8           0       -0.172158   -1.358873    0.376283
      5          6           0        0.407617   -0.309542   -0.161945
      6          1           0       -0.295930    0.174730   -1.282619
      7          6           0        1.841100   -0.464208   -0.614772
      8          1           0        2.058679    0.248046   -1.420175
      9          6           0        2.766226   -0.166185    0.585488
     10          1           0        2.457676   -0.822141    1.414237
     11          6           0        4.237546   -0.476352    0.272000
     12          1           0        4.309839   -1.542349    0.015295
     13          6           0        4.809656    0.332307   -0.875699
     14          1           0        5.845489    0.021944   -1.054332
     15          1           0        4.256614    0.152791   -1.801112
     16          8           0        4.739163    1.734927   -0.619835
     17          1           0        5.376060    1.918125    0.081224
     18          8           0        5.059117   -0.159642    1.387026
     19          1           0        4.657503   -0.510518    2.188485
     20          8           0        2.542233    1.155606    1.009199
     21          1           0        3.163811    1.713108    0.512370
     22          8           0        2.040009   -1.811219   -1.016257
     23          1           0        1.801382   -1.909080   -1.945505
     24          1           0        0.328644   -2.151358    0.104099
 ---------------------------------------------------------------------
                    Distance matrix (angstroms):
                    1          2          3          4          5
     1  O    0.000000
     2  C    1.286967   0.000000
     3  H    2.057476   1.094789   0.000000
     4  O    2.786228   2.350480   3.301249   0.000000
     5  C    2.396336   1.415786   2.127060   1.314125   0.000000
     6  H    2.173869   1.311261   1.855635   2.262568   1.409045
     7  C    3.777533   2.580924   2.734010   2.415745   1.511240
     8  H    4.017769   2.737998   2.504527   3.284217   2.149431
     9  C    4.436556   3.345504   3.354278   3.178108   2.478355
    10  H    4.520122   3.638104   3.918749   2.877752   2.636257
    11  C    5.926573   4.770022   4.628866   4.498356   3.858042
    12  H    6.366596   5.228991   5.252902   4.500253   4.096165
    13  C    6.438007   5.187104   4.767403   5.407959   4.505481
    14  H    7.520853   6.268685   5.859256   6.337617   5.520570
    15  H    6.174663   4.889474   4.476473   5.161414   4.208966
    16  O    6.312052   5.122570   4.461186   5.889391   4.811633
    17  H    6.902399   5.770897   5.137732   6.450465   5.450418
    18  O    6.744434   5.692156   5.508882   5.461318   4.904919
    19  H    6.618850   5.685331   5.647549   5.227754   4.860704
    20  O    4.081138   3.098572   2.816483   3.753812   2.841623
    21  H    4.683861   3.625369   3.074040   4.536990   3.484597
    22  O    4.748904   3.684940   4.025879   2.652823   2.376886
    23  H    4.980337   3.929488   4.227531   3.096496   2.771676
    24  H    3.724975   3.145988   3.983649   0.976176   1.862606
                    6          7          8          9         10
     6  H    0.000000
     7  C    2.328338   0.000000
     8  H    2.359763   1.096960   0.000000
     9  C    3.603172   1.544442   2.166770   0.000000
    10  H    3.981097   2.150618   3.055878   1.101048   0.000000
    11  C    4.836647   2.555282   2.852310   1.535989   2.142945
    12  H    5.083901   2.766594   3.214624   2.145155   2.430277
    13  C    5.124200   3.084614   2.805607   2.561087   3.479708
    14  H    6.147559   4.057670   3.811154   3.493746   4.275931
    15  H    4.582027   2.760942   2.232735   2.831759   3.811186
    16  O    5.312783   3.637993   3.168020   2.993244   3.985126
    17  H    6.088593   4.319243   4.006043   3.377849   4.219354
    18  O    5.992941   3.802051   4.129070   2.428962   2.684612
    19  H    6.087251   3.973980   4.511289   2.503017   2.352830
    20  O    3.777528   2.398472   2.638058   1.406000   2.020566
    21  H    4.190274   2.785807   2.665043   1.922280   2.781992
    22  O    3.077589   1.419575   2.098588   2.408135   2.657070
    23  H    3.029917   1.964709   2.235032   3.220952   3.591660
    24  H    2.779166   2.377136   3.327698   3.180323   2.831264
                   11         12         13         14         15
    11  C    0.000000
    12  H    1.098851   0.000000
    13  C    1.516065   2.134953   0.000000
    14  H    2.143114   2.439126   1.095986   0.000000
    15  H    2.166559   2.485089   1.092918   1.760490   0.000000
    16  O    2.436543   3.365746   1.427508   2.084959   2.032590
    17  H    2.658219   3.621609   1.936836   2.259503   2.812961
    18  O    1.420763   2.086850   2.328985   2.571300   3.302401
    19  H    1.962255   2.430700   3.181624   3.494380   4.064182
    20  O    2.465935   3.375091   3.061351   4.056458   3.441306
    21  H    2.450392   3.486899   2.557763   3.536381   2.996833
    22  O    2.875873   2.507692   3.505054   4.224170   3.063767
    23  H    3.592344   3.204931   3.901027   4.569228   3.209412
    24  H    4.255978   4.028485   5.216135   6.041588   4.936383
                   16         17         18         19         20
    16  O    0.000000
    17  H    0.964719   0.000000
    18  O    2.778354   2.474406   0.000000
    19  H    3.596575   3.294720   0.962676   0.000000
    20  O    2.795687   3.077848   2.864845   2.939567   0.000000
    21  H    1.940128   2.263176   2.804354   3.159903   0.971600
    22  O    4.474118   5.122666   4.197438   4.337450   3.627224
    23  H    4.864848   5.615465   4.977864   5.215676   4.321046
    24  H    5.922835   6.483643   5.290577   5.077011   4.081077
                   21         22         23         24
    21  H    0.000000
    22  O    4.002563   0.000000
    23  H    4.584497   0.964376   0.000000
    24  H    4.810297   2.073563   2.535455   0.000000
 Stoichiometry    C6H12O6
 Framework group  C1[X(C6H12O6)]
 Deg. of freedom    66
 Full point group                 C1      NOp   1
 Largest Abelian subgroup         C1      NOp   1
 Largest concise Abelian subgroup C1      NOp   1
                         Standard orientation:                         
 ---------------------------------------------------------------------
 Center     Atomic      Atomic             Coordinates (Angstroms)
 Number     Number       Type             X           Y           Z
 ---------------------------------------------------------------------
      1          8           0        3.657858   -1.379908    0.112542
      2          6           0        2.512602   -1.017390   -0.349252
      3          1           0        1.882008   -1.754663   -0.856542
      4          8           0        2.534238    1.114456    0.640455
      5          6           0        1.894230    0.229678   -0.090626
      6          1           0        2.589326   -0.090613   -1.273700
      7          6           0        0.487603    0.573292   -0.523268
      8          1           0        0.239819    0.040866   -1.449791
      9          6           0       -0.486825    0.129082    0.589596
     10          1           0       -0.152987    0.595155    1.529615
     11          6           0       -1.923516    0.602137    0.322390
     12          1           0       -1.912247    1.699587    0.268076
     13          6           0       -2.523035    0.065366   -0.962486
     14          1           0       -3.528929    0.480765   -1.092126
     15          1           0       -1.935134    0.370712   -1.831742
     16          8           0       -2.560336   -1.361624   -0.971768
     17          1           0       -3.226406   -1.622732   -0.324576
     18          8           0       -2.793871    0.147565    1.349237
     19          1           0       -2.388532    0.312733    2.206654
     20          8           0       -0.369520   -1.261361    0.762054
     21          1           0       -1.016819   -1.668735    0.162840
     22          8           0        0.396561    1.982440   -0.668899
     23          1           0        0.665179    2.232239   -1.560788
     24          1           0        2.098935    1.979145    0.514983
 ---------------------------------------------------------------------
 Rotational constants (GHZ):           1.5819340           0.5281973           0.4766501
 Standard basis: 6-311+G(d,p) (5D, 7F)
 There are   348 symmetry adapted cartesian basis functions of A   symmetry.
 There are   336 symmetry adapted basis functions of A   symmetry.
   336 basis functions,   528 primitive gaussians,   348 cartesian basis functions
    48 alpha electrons       48 beta electrons
       nuclear repulsion energy       804.1594623534 Hartrees.
 NAtoms=   24 NActive=   24 NUniq=   24 SFac= 1.00D+00 NAtFMM=   60 NAOKFM=F Big=F
 Integral buffers will be    131072 words long.
 Raffenetti 2 integral format.
 Two-electron integral symmetry is turned on.
 ------------------------------------------------------------------------------
 Polarizable Continuum Model (PCM)
 =================================
 Model                : PCM.
 Atomic radii         : SMD-Coulomb.
 Polarization charges : Total charges.
 Charge compensation  : None.
 Solution method      : On-the-fly selection.
 Cavity type          : VdW (van der Waals Surface) (Alpha=1.000).
 Cavity algorithm     : GePol (No added spheres)
                        Default sphere list used, NSphG=   24.
                        Lebedev-Laikov grids with approx.  5.0 points / Ang**2.
                        Smoothing algorithm: York/Karplus (Gamma=1.0000).
                        Polarization charges: spherical gaussians, with
                                              point-specific exponents (IZeta= 3).
                        Self-potential: point-specific (ISelfS= 7).
                        Self-field    : sphere-specific E.n sum rule (ISelfD= 2).
 Solvent              : 1,4-Dioxane, Eps=   2.209900 Eps(inf)=   2.023222
 ------------------------------------------------------------------------------
 ------------------------------------------------------------------------------
 Atomic radii for non-electrostatic terms: SMD-CDS.
 ------------------------------------------------------------------------------
 Nuclear repulsion after PCM non-electrostatic terms =      804.1519696339 Hartrees.
 One-electron integrals computed using PRISM.
 NBasis=   336 RedAO= T EigKep=  8.36D-06  NBF=   336
 NBsUse=   336 1.00D-06 EigRej= -1.00D+00 NBFU=   336
 ExpMin= 4.38D-02 ExpMax= 8.59D+03 ExpMxC= 1.30D+03 IAcc=3 IRadAn=         5 AccDes= 0.00D+00
 Harris functional with IExCor= 1009 and IRadAn=       5 diagonalized for initial guess.
 HarFok:  IExCor= 1009 AccDes= 0.00D+00 IRadAn=         5 IDoV= 1 UseB2=F ITyADJ=14
 ICtDFT=  3500011 ScaDFX=  1.000000  1.000000  1.000000  1.000000
 FoFCou: FMM=F IPFlag=           0 FMFlag=      100000 FMFlg1=           0
         NFxFlg=           0 DoJE=T BraDBF=F KetDBF=T FulRan=T
         wScrn=  0.000000 ICntrl=       500 IOpCl=  0 I1Cent=   200000004 NGrid=           0
         NMat0=    1 NMatS0=      1 NMatT0=    0 NMatD0=    1 NMtDS0=    0 NMtDT0=    0
 Petite list used in FoFCou.
 Requested convergence on RMS density matrix=1.00D-08 within 400 cycles.
 Requested convergence on MAX density matrix=1.00D-06.
 Requested convergence on             energy=1.00D-06.
 No special actions if energy rises.
 Inv3:  Mode=1 IEnd=    10457067.
 Iteration    1 A*A^-1 deviation from unit magnitude is 3.77D-15 for   1867.
 Iteration    1 A*A^-1 deviation from orthogonality  is 2.29D-15 for   1864   1716.
 Iteration    1 A^-1*A deviation from unit magnitude is 4.22D-15 for   1867.
 Iteration    1 A^-1*A deviation from orthogonality  is 2.75D-15 for   1864   1716.
 EnCoef did     1 forward-backward iterations
 EnCoef did     4 forward-backward iterations
 Error on total polarization charges =  0.01103
 SCF Done:  E(RM06L) =  -687.228040821     A.U. after   18 cycles
            NFock= 18  Conv=0.36D-08     -V/T= 2.0035
 SMD-CDS (non-electrostatic) energy       (kcal/mol) =      -4.70
 (included in total energy above)
 QCSCF skips out because SCF is already converged.

 **********************************************************************

            Population analysis using the SCF density.

 **********************************************************************

 Orbital symmetries:
       Occupied  (A) (A) (A) (A) (A) (A) (A) (A) (A) (A) (A) (A)
                 (A) (A) (A) (A) (A) (A) (A) (A) (A) (A) (A) (A)
                 (A) (A) (A) (A) (A) (A) (A) (A) (A) (A) (A) (A)
                 (A) (A) (A) (A) (A) (A) (A) (A) (A) (A) (A) (A)
       Virtual   (A) (A) (A) (A) (A) (A) (A) (A) (A) (A) (A) (A)
                 (A) (A) (A) (A) (A) (A) (A) (A) (A) (A) (A) (A)
                 (A) (A) (A) (A) (A) (A) (A) (A) (A) (A) (A) (A)
                 (A) (A) (A) (A) (A) (A) (A) (A) (A) (A) (A) (A)
                 (A) (A) (A) (A) (A) (A) (A) (A) (A) (A) (A) (A)
                 (A) (A) (A) (A) (A) (A) (A) (A) (A) (A) (A) (A)
                 (A) (A) (A) (A) (A) (A) (A) (A) (A) (A) (A) (A)
                 (A) (A) (A) (A) (A) (A) (A) (A) (A) (A) (A) (A)
                 (A) (A) (A) (A) (A) (A) (A) (A) (A) (A) (A) (A)
                 (A) (A) (A) (A) (A) (A) (A) (A) (A) (A) (A) (A)
                 (A) (A) (A) (A) (A) (A) (A) (A) (A) (A) (A) (A)
                 (A) (A) (A) (A) (A) (A) (A) (A) (A) (A) (A) (A)
                 (A) (A) (A) (A) (A) (A) (A) (A) (A) (A) (A) (A)
                 (A) (A) (A) (A) (A) (A) (A) (A) (A) (A) (A) (A)
                 (A) (A) (A) (A) (A) (A) (A) (A) (A) (A) (A) (A)
                 (A) (A) (A) (A) (A) (A) (A) (A) (A) (A) (A) (A)
                 (A) (A) (A) (A) (A) (A) (A) (A) (A) (A) (A) (A)
                 (A) (A) (A) (A) (A) (A) (A) (A) (A) (A) (A) (A)
                 (A) (A) (A) (A) (A) (A) (A) (A) (A) (A) (A) (A)
                 (A) (A) (A) (A) (A) (A) (A) (A) (A) (A) (A) (A)
                 (A) (A) (A) (A) (A) (A) (A) (A) (A) (A) (A) (A)
                 (A) (A) (A) (A) (A) (A) (A) (A) (A) (A) (A) (A)
                 (A) (A) (A) (A) (A) (A) (A) (A) (A) (A) (A) (A)
                 (A) (A) (A) (A) (A) (A) (A) (A) (A) (A) (A) (A)
 The electronic state is 1-A.
 Alpha  occ. eigenvalues --  -19.02732 -19.01659 -18.99511 -18.98740 -18.97531
 Alpha  occ. eigenvalues --  -18.89814 -10.15553 -10.14539 -10.12683 -10.12115
 Alpha  occ. eigenvalues --  -10.11994 -10.11664  -1.08659  -1.04491  -1.03674
 Alpha  occ. eigenvalues --   -1.01253  -1.00634  -0.93909  -0.78407  -0.74946
 Alpha  occ. eigenvalues --   -0.69904  -0.63411  -0.58196  -0.57688  -0.53704
 Alpha  occ. eigenvalues --   -0.52701  -0.50173  -0.49217  -0.47308  -0.45414
 Alpha  occ. eigenvalues --   -0.44276  -0.43101  -0.41094  -0.40286  -0.39274
 Alpha  occ. eigenvalues --   -0.36675  -0.36129  -0.34584  -0.34063  -0.33594
 Alpha  occ. eigenvalues --   -0.33116  -0.31951  -0.30141  -0.26433  -0.25939
 Alpha  occ. eigenvalues --   -0.25125  -0.20889  -0.18276
 Alpha virt. eigenvalues --   -0.03355  -0.02518  -0.00866   0.00527   0.01133
 Alpha virt. eigenvalues --    0.02559   0.03113   0.03484   0.04312   0.05112
 Alpha virt. eigenvalues --    0.05811   0.06254   0.06792   0.07373   0.09045
 Alpha virt. eigenvalues --    0.09338   0.10331   0.10858   0.11326   0.11925
 Alpha virt. eigenvalues --    0.12187   0.12468   0.13124   0.13547   0.13855
 Alpha virt. eigenvalues --    0.14385   0.14772   0.15071   0.15795   0.16294
 Alpha virt. eigenvalues --    0.16819   0.17492   0.17874   0.18543   0.19077
 Alpha virt. eigenvalues --    0.19463   0.19688   0.20124   0.22094   0.22176
 Alpha virt. eigenvalues --    0.22988   0.23848   0.24009   0.24785   0.25090
 Alpha virt. eigenvalues --    0.25628   0.26282   0.27582   0.28157   0.28635
 Alpha virt. eigenvalues --    0.29070   0.29513   0.30500   0.31046   0.31956
 Alpha virt. eigenvalues --    0.32483   0.32772   0.33335   0.34017   0.34467
 Alpha virt. eigenvalues --    0.34790   0.35452   0.36287   0.36887   0.37704
 Alpha virt. eigenvalues --    0.38511   0.38824   0.40154   0.41828   0.42417
 Alpha virt. eigenvalues --    0.43280   0.45188   0.46503   0.48146   0.50100
 Alpha virt. eigenvalues --    0.50483   0.51524   0.52135   0.53857   0.54927
 Alpha virt. eigenvalues --    0.55233   0.56527   0.57229   0.57301   0.59429
 Alpha virt. eigenvalues --    0.59926   0.62014   0.62926   0.64254   0.66778
 Alpha virt. eigenvalues --    0.66949   0.67746   0.68257   0.69325   0.69551
 Alpha virt. eigenvalues --    0.70216   0.73092   0.74822   0.76641   0.78603
 Alpha virt. eigenvalues --    0.81457   0.85356   0.85834   0.89207   0.92884
 Alpha virt. eigenvalues --    0.93271   0.95897   0.98014   1.01380   1.01581
 Alpha virt. eigenvalues --    1.04903   1.05775   1.06932   1.08248   1.09875
 Alpha virt. eigenvalues --    1.11214   1.13194   1.14163   1.15721   1.15997
 Alpha virt. eigenvalues --    1.18246   1.18458   1.18675   1.19791   1.21250
 Alpha virt. eigenvalues --    1.22857   1.24439   1.25366   1.26947   1.27650
 Alpha virt. eigenvalues --    1.28361   1.31514   1.33185   1.37243   1.38983
 Alpha virt. eigenvalues --    1.41502   1.42086   1.44507   1.44985   1.45252
 Alpha virt. eigenvalues --    1.47756   1.49712   1.50362   1.53768   1.55048
 Alpha virt. eigenvalues --    1.56421   1.57435   1.59062   1.59353   1.60838
 Alpha virt. eigenvalues --    1.62547   1.63558   1.65150   1.66602   1.67481
 Alpha virt. eigenvalues --    1.68293   1.69418   1.71547   1.72781   1.74083
 Alpha virt. eigenvalues --    1.77357   1.80068   1.81426   1.82115   1.83771
 Alpha virt. eigenvalues --    1.86378   1.87916   1.89967   1.92554   1.93831
 Alpha virt. eigenvalues --    1.97851   1.98228   2.01188   2.02424   2.04969
 Alpha virt. eigenvalues --    2.05280   2.06274   2.06894   2.08044   2.12839
 Alpha virt. eigenvalues --    2.13780   2.16066   2.20210   2.22457   2.23826
 Alpha virt. eigenvalues --    2.24597   2.27725   2.30629   2.31567   2.33799
 Alpha virt. eigenvalues --    2.35796   2.40244   2.43358   2.47268   2.48436
 Alpha virt. eigenvalues --    2.53469   2.55255   2.61034   2.64860   2.65706
 Alpha virt. eigenvalues --    2.67630   2.71622   2.73745   2.75338   2.75964
 Alpha virt. eigenvalues --    2.80763   2.82260   2.86670   2.86960   2.91672
 Alpha virt. eigenvalues --    2.92586   2.94209   2.96764   2.96813   3.01828
 Alpha virt. eigenvalues --    3.02626   3.04315   3.05689   3.07831   3.10396
 Alpha virt. eigenvalues --    3.11540   3.12798   3.14434   3.15693   3.17633
 Alpha virt. eigenvalues --    3.19166   3.20917   3.23117   3.24038   3.24495
 Alpha virt. eigenvalues --    3.29581   3.32600   3.35284   3.36874   3.38460
 Alpha virt. eigenvalues --    3.39557   3.42860   3.44398   3.50650   3.54508
 Alpha virt. eigenvalues --    3.58931   3.76225   3.80518   3.85469   3.88929
 Alpha virt. eigenvalues --    3.92577   3.93424   3.93594   3.99407   3.99998
 Alpha virt. eigenvalues --    4.04923   4.06582   4.07191   4.18130   4.21041
 Alpha virt. eigenvalues --    4.25647   4.35370   4.37725   5.14080   5.16234
 Alpha virt. eigenvalues --    5.22210   5.22940   5.24063   5.24911   5.29009
 Alpha virt. eigenvalues --    5.46387   5.49060   5.49945   5.51857   5.55567
 Alpha virt. eigenvalues --    5.71555   5.73974   5.77758   5.79857   5.84033
 Alpha virt. eigenvalues --    5.96899  23.82368  23.90295  23.92343  23.92654
 Alpha virt. eigenvalues --   23.97835  24.09125  50.16298  50.16823  50.17764
 Alpha virt. eigenvalues --   50.19955  50.25544  50.28866
          Condensed to atoms (all electrons):
               1          2          3          4          5          6
     1  O    8.272370   0.404947  -0.024299   0.021616  -0.301134  -0.037990
     2  C    0.404947   6.719682   0.397036  -0.181271  -1.255984  -0.123120
     3  H   -0.024299   0.397036   0.618186   0.002337  -0.206797  -0.031274
     4  O    0.021616  -0.181271   0.002337   7.770394   0.331425  -0.071932
     5  C   -0.301134  -1.255984  -0.206797   0.331425  12.470443   0.246950
     6  H   -0.037990  -0.123120  -0.031274  -0.071932   0.246950   0.726769
     7  C    0.128579  -0.694432   0.098849   0.083390  -4.045109   0.210411
     8  H   -0.000722   0.072336  -0.002920   0.011600  -0.159172  -0.015421
     9  C   -0.000717   0.165539   0.016584  -0.088865   0.445810  -0.023462
    10  H   -0.000044   0.013863  -0.000559   0.005237  -0.121865   0.000144
    11  C    0.008157   0.040942   0.008262   0.032949  -0.974635   0.011824
    12  H   -0.000030   0.000233  -0.000010  -0.000310   0.020564  -0.000091
    13  C   -0.000296   0.023529   0.000802   0.002451  -0.172016  -0.003212
    14  H   -0.000000   0.000433  -0.000004   0.000000   0.005195   0.000001
    15  H    0.000006  -0.002017   0.000024  -0.000206   0.007920   0.000078
    16  O   -0.000104   0.003960  -0.000459  -0.000054   0.013792  -0.000137
    17  H    0.000001   0.000269  -0.000021  -0.000008   0.000395   0.000009
    18  O   -0.000041  -0.005390  -0.000036  -0.000361   0.032085   0.000011
    19  H    0.000007   0.000973   0.000002   0.000143  -0.005785   0.000008
    20  O   -0.004955   0.110082  -0.012853  -0.001027  -0.062065  -0.008519
    21  H    0.000641  -0.015116  -0.000468  -0.000251  -0.007076   0.001368
    22  O   -0.002218   0.124876  -0.000451   0.004803  -0.209410  -0.032261
    23  H    0.000032  -0.012027   0.000002  -0.002569   0.052677   0.003171
    24  H    0.000388   0.101257   0.000223   0.265949  -0.033106   0.000407
               7          8          9         10         11         12
     1  O    0.128579  -0.000722  -0.000717  -0.000044   0.008157  -0.000030
     2  C   -0.694432   0.072336   0.165539   0.013863   0.040942   0.000233
     3  H    0.098849  -0.002920   0.016584  -0.000559   0.008262  -0.000010
     4  O    0.083390   0.011600  -0.088865   0.005237   0.032949  -0.000310
     5  C   -4.045109  -0.159172   0.445810  -0.121865  -0.974635   0.020564
     6  H    0.210411  -0.015421  -0.023462   0.000144   0.011824  -0.000091
     7  C   11.713359   0.319270  -2.272177  -0.002477   1.097248   0.020393
     8  H    0.319270   0.575256   0.001232   0.005975  -0.007996   0.000679
     9  C   -2.272177   0.001232  10.099520   0.325821  -2.648198   0.055762
    10  H   -0.002477   0.005975   0.325821   0.557641   0.088181  -0.008412
    11  C    1.097248  -0.007996  -2.648198   0.088181   8.325524   0.151520
    12  H    0.020393   0.000679   0.055762  -0.008412   0.151520   0.616242
    13  C   -0.031013   0.042113  -0.168146   0.028393  -0.015766   0.002742
    14  H   -0.018586   0.000015   0.056430  -0.000468  -0.003907  -0.007500
    15  H    0.027352  -0.006854  -0.035639  -0.000480  -0.033267   0.001201
    16  O   -0.080257   0.001780   0.101685  -0.001257  -0.173593   0.022430
    17  H    0.002944  -0.000442  -0.053113  -0.000015   0.021732  -0.001634
    18  O    0.079374  -0.001722  -0.140425  -0.019247   0.214096  -0.026964
    19  H    0.007705   0.000087  -0.026452   0.007509   0.039025  -0.005558
    20  O   -0.308849   0.009491   0.289346  -0.045439  -0.118691   0.015790
    21  H    0.017287  -0.002833   0.095545   0.002883  -0.019893  -0.003412
    22  O   -0.027708  -0.009713  -0.084258   0.010494   0.074733  -0.005288
    23  H    0.032234  -0.011673  -0.007188  -0.000707  -0.004714  -0.000032
    24  H   -0.063518   0.001184  -0.028848   0.001464   0.014312  -0.000256
              13         14         15         16         17         18
     1  O   -0.000296  -0.000000   0.000006  -0.000104   0.000001  -0.000041
     2  C    0.023529   0.000433  -0.002017   0.003960   0.000269  -0.005390
     3  H    0.000802  -0.000004   0.000024  -0.000459  -0.000021  -0.000036
     4  O    0.002451   0.000000  -0.000206  -0.000054  -0.000008  -0.000361
     5  C   -0.172016   0.005195   0.007920   0.013792   0.000395   0.032085
     6  H   -0.003212   0.000001   0.000078  -0.000137   0.000009   0.000011
     7  C   -0.031013  -0.018586   0.027352  -0.080257   0.002944   0.079374
     8  H    0.042113   0.000015  -0.006854   0.001780  -0.000442  -0.001722
     9  C   -0.168146   0.056430  -0.035639   0.101685  -0.053113  -0.140425
    10  H    0.028393  -0.000468  -0.000480  -0.001257  -0.000015  -0.019247
    11  C   -0.015766  -0.003907  -0.033267  -0.173593   0.021732   0.214096
    12  H    0.002742  -0.007500   0.001201   0.022430  -0.001634  -0.026964
    13  C    5.633832   0.339698   0.409513   0.126497   0.058932  -0.139691
    14  H    0.339698   0.548018  -0.024860  -0.033558  -0.006985  -0.009347
    15  H    0.409513  -0.024860   0.547405  -0.045075   0.003673   0.011777
    16  O    0.126497  -0.033558  -0.045075   8.096210   0.273576   0.016883
    17  H    0.058932  -0.006985   0.003673   0.273576   0.413076   0.000494
    18  O   -0.139691  -0.009347   0.011777   0.016883   0.000494   8.059873
    19  H    0.006371   0.000495  -0.000263  -0.002472   0.000177   0.257331
    20  O    0.024208  -0.001116  -0.000960   0.018413  -0.006387   0.043256
    21  H    0.009558  -0.000242  -0.002132   0.016476  -0.005805  -0.015397
    22  O   -0.015656   0.000333  -0.003660   0.001749   0.000059  -0.006376
    23  H   -0.002785   0.000012  -0.000009   0.000139  -0.000008   0.000356
    24  H    0.000030   0.000001   0.000001  -0.000005   0.000001  -0.000021
              19         20         21         22         23         24
     1  O    0.000007  -0.004955   0.000641  -0.002218   0.000032   0.000388
     2  C    0.000973   0.110082  -0.015116   0.124876  -0.012027   0.101257
     3  H    0.000002  -0.012853  -0.000468  -0.000451   0.000002   0.000223
     4  O    0.000143  -0.001027  -0.000251   0.004803  -0.002569   0.265949
     5  C   -0.005785  -0.062065  -0.007076  -0.209410   0.052677  -0.033106
     6  H    0.000008  -0.008519   0.001368  -0.032261   0.003171   0.000407
     7  C    0.007705  -0.308849   0.017287  -0.027708   0.032234  -0.063518
     8  H    0.000087   0.009491  -0.002833  -0.009713  -0.011673   0.001184
     9  C   -0.026452   0.289346   0.095545  -0.084258  -0.007188  -0.028848
    10  H    0.007509  -0.045439   0.002883   0.010494  -0.000707   0.001464
    11  C    0.039025  -0.118691  -0.019893   0.074733  -0.004714   0.014312
    12  H   -0.005558   0.015790  -0.003412  -0.005288  -0.000032  -0.000256
    13  C    0.006371   0.024208   0.009558  -0.015656  -0.002785   0.000030
    14  H    0.000495  -0.001116  -0.000242   0.000333   0.000012   0.000001
    15  H   -0.000263  -0.000960  -0.002132  -0.003660  -0.000009   0.000001
    16  O   -0.002472   0.018413   0.016476   0.001749   0.000139  -0.000005
    17  H    0.000177  -0.006387  -0.005805   0.000059  -0.000008   0.000001
    18  O    0.257331   0.043256  -0.015397  -0.006376   0.000356  -0.000021
    19  H    0.441446  -0.010300   0.001343   0.000315  -0.000028  -0.000002
    20  O   -0.010300   8.050839   0.250377   0.034074  -0.001803   0.000027
    21  H    0.001343   0.250377   0.385732  -0.003673   0.000088   0.000097
    22  O    0.000315   0.034074  -0.003673   8.197264   0.243297   0.031384
    23  H   -0.000028  -0.001803   0.000088   0.243297   0.404213  -0.004150
    24  H   -0.000002   0.000027   0.000097   0.031384  -0.004150   0.412750
 Mulliken charges:
               1
     1  O   -0.464190
     2  C    0.109400
     3  H    0.137847
     4  O   -0.185437
     5  C   -0.073100
     6  H    0.146270
     7  C   -0.294270
     8  H    0.178452
     9  C   -0.075785
    10  H    0.153367
    11  C   -0.127846
    12  H    0.151938
    13  C   -0.160088
    14  H    0.155942
    15  H    0.146471
    16  O   -0.356619
    17  H    0.299082
    18  O   -0.350518
    19  H    0.287924
    20  O   -0.262939
    21  H    0.294906
    22  O   -0.322710
    23  H    0.311473
    24  H    0.300432
 Sum of Mulliken charges =  -0.00000
 Mulliken charges with hydrogens summed into heavy atoms:
               1
     1  O   -0.464190
     2  C    0.393517
     4  O    0.114995
     5  C   -0.073100
     7  C   -0.115818
     9  C    0.077582
    11  C    0.024092
    13  C    0.142325
    16  O   -0.057538
    18  O   -0.062594
    20  O    0.031967
    22  O   -0.011238
 Electronic spatial extent (au):  <R**2>=           2426.3499
 Charge=             -0.0000 electrons
 Dipole moment (field-independent basis, Debye):
    X=             -6.7137    Y=              5.7504    Z=             -3.1236  Tot=              9.3754
 Quadrupole moment (field-independent basis, Debye-Ang):
   XX=            -98.7655   YY=            -72.2738   ZZ=            -65.1027
   XY=             13.8651   XZ=             -7.8782   YZ=             -1.2682
 Traceless Quadrupole moment (field-independent basis, Debye-Ang):
   XX=            -20.0515   YY=              6.4402   ZZ=             13.6113
   XY=             13.8651   XZ=             -7.8782   YZ=             -1.2682
 Octapole moment (field-independent basis, Debye-Ang**2):
  XXX=           -142.7726  YYY=             16.7284  ZZZ=              8.2287  XYY=            -14.6114
  XXY=             43.3775  XXZ=            -20.1833  XZZ=             -1.4268  YZZ=             18.5780
  YYZ=             -4.4093  XYZ=              4.5715
 Hexadecapole moment (field-independent basis, Debye-Ang**3):
 XXXX=          -2551.8311 YYYY=           -523.3208 ZZZZ=           -283.9586 XXXY=            234.9595
 XXXZ=            -23.3736 YYYX=             90.8387 YYYZ=            -14.6684 ZZZX=            -44.1558
 ZZZY=            -14.1261 XXYY=           -470.9343 XXZZ=           -403.4261 YYZZ=           -137.7963
 XXYZ=            -12.2894 YYXZ=            -18.0887 ZZXY=             -4.0342
 N-N= 8.041519696339D+02 E-N=-3.221618788818D+03  KE= 6.848021549997D+02
 1\1\GINC-N2465\SP\RM06L\6-311+G(d,p)\C6H12O6\YKIM\09-Sep-2018\0\\# m06
 l/6-311+g(d,p) scf=(xqc,maxconventionalcycles=400) scrf=(smd,solvent=1
 ,4-dioxane) temperature=443.15\\Title Card Required\\0,1\O,0,-1.474794
 ,1.102603,0.290606\C,0,-0.300151,0.916014,-0.201006\H,0,0.278785,1.778
 42,-0.546913\O,0,-0.172158,-1.358873,0.376283\C,0,0.407617,-0.309542,-
 0.161945\H,0,-0.29593,0.17473,-1.282619\C,0,1.8411,-0.464208,-0.614772
 \H,0,2.058679,0.248046,-1.420175\C,0,2.766226,-0.166185,0.585488\H,0,2
 .457676,-0.822141,1.414237\C,0,4.237546,-0.476352,0.272\H,0,4.309839,-
 1.542349,0.015295\C,0,4.809656,0.332307,-0.875699\H,0,5.845489,0.02194
 4,-1.054332\H,0,4.256614,0.152791,-1.801112\O,0,4.739163,1.734927,-0.6
 19835\H,0,5.37606,1.918125,0.081224\O,0,5.059117,-0.159642,1.387026\H,
 0,4.657503,-0.510518,2.188485\O,0,2.542233,1.155606,1.009199\H,0,3.163
 811,1.713108,0.51237\O,0,2.040009,-1.811219,-1.016257\H,0,1.801382,-1.
 90908,-1.945505\H,0,0.328644,-2.151358,0.104099\\Version=ES64L-G16RevA
 .03\State=1-A\HF=-687.2280408\RMSD=3.560e-09\Dipole=2.8188075,-1.79731
 73,-1.558707\Quadrupole=-16.4785809,5.8250549,10.653526,7.5200155,6.98
 53805,0.6438832\PG=C01 [X(C6H12O6)]\\@


 WE TEND TO MEET ANY NEW SITUATION BY REORGANIZING. IT CAN BE A
 WONDERFUL METHOD FOR CREATING THE ILLUSION OF PROGRESS WHILE PRODUCING
 CONFUSION, INEFFICIENCY, AND DEMORALIZATION.
     -- PETRONIUS ARBITER, 210 B.C.
 Job cpu time:       0 days  0 hours 25 minutes 15.8 seconds.
 Elapsed time:       0 days  0 hours  1 minutes  4.3 seconds.
 File lengths (MBytes):  RWF=    122 Int=      0 D2E=      0 Chk=      8 Scr=      1
 Normal termination of Gaussian 16 at Sun Sep  9 22:45:14 2018.
