 Entering Gaussian System, Link 0=g16
 Initial command:
 /nopt/nrel/apps/gaussian/G16.sandy/g16/l1.exe "/scratch/ykim/gaussianScratch.5606386/Gau-17642.inp" -scrdir="/scratch/ykim/gaussianScratch.5606386/"
 Default linda workers: n2469
 Default is to use  24 SMP processors on each worker.
 Entering Link 1 = /nopt/nrel/apps/gaussian/G16.sandy/g16/l1.exe PID=     17643.
  
 Copyright (c) 1988,1990,1992,1993,1995,1998,2003,2009,2016,
            Gaussian, Inc.  All Rights Reserved.
  
 This is part of the Gaussian(R) 16 program.  It is based on
 the Gaussian(R) 09 system (copyright 2009, Gaussian, Inc.),
 the Gaussian(R) 03 system (copyright 2003, Gaussian, Inc.),
 the Gaussian(R) 98 system (copyright 1998, Gaussian, Inc.),
 the Gaussian(R) 94 system (copyright 1995, Gaussian, Inc.),
 the Gaussian 92(TM) system (copyright 1992, Gaussian, Inc.),
 the Gaussian 90(TM) system (copyright 1990, Gaussian, Inc.),
 the Gaussian 88(TM) system (copyright 1988, Gaussian, Inc.),
 the Gaussian 86(TM) system (copyright 1986, Carnegie Mellon
 University), and the Gaussian 82(TM) system (copyright 1983,
 Carnegie Mellon University). Gaussian is a federally registered
 trademark of Gaussian, Inc.
  
 This software contains proprietary and confidential information,
 including trade secrets, belonging to Gaussian, Inc.
  
 This software is provided under written license and may be
 used, copied, transmitted, or stored only in accord with that
 written license.
  
 The following legend is applicable only to US Government
 contracts under FAR:
  
                    RESTRICTED RIGHTS LEGEND
  
 Use, reproduction and disclosure by the US Government is
 subject to restrictions as set forth in subparagraphs (a)
 and (c) of the Commercial Computer Software - Restricted
 Rights clause in FAR 52.227-19.
  
 Gaussian, Inc.
 340 Quinnipiac St., Bldg. 40, Wallingford CT 06492
  
  
 ---------------------------------------------------------------
 Warning -- This program may not be used in any manner that
 competes with the business of Gaussian, Inc. or will provide
 assistance to any competitor of Gaussian, Inc.  The licensee
 of this program is prohibited from giving any competitor of
 Gaussian, Inc. access to this program.  By using this program,
 the user acknowledges that Gaussian, Inc. is engaged in the
 business of creating and licensing software in the field of
 computational chemistry and represents and warrants to the
 licensee that it is not a competitor of Gaussian, Inc. and that
 it will not use this program in any manner prohibited above.
 ---------------------------------------------------------------
  

 Cite this work as:
 Gaussian 16, Revision A.03,
 M. J. Frisch, G. W. Trucks, H. B. Schlegel, G. E. Scuseria, 
 M. A. Robb, J. R. Cheeseman, G. Scalmani, V. Barone, 
 G. A. Petersson, H. Nakatsuji, X. Li, M. Caricato, A. V. Marenich, 
 J. Bloino, B. G. Janesko, R. Gomperts, B. Mennucci, H. P. Hratchian, 
 J. V. Ortiz, A. F. Izmaylov, J. L. Sonnenberg, D. Williams-Young, 
 F. Ding, F. Lipparini, F. Egidi, J. Goings, B. Peng, A. Petrone, 
 T. Henderson, D. Ranasinghe, V. G. Zakrzewski, J. Gao, N. Rega, 
 G. Zheng, W. Liang, M. Hada, M. Ehara, K. Toyota, R. Fukuda, 
 J. Hasegawa, M. Ishida, T. Nakajima, Y. Honda, O. Kitao, H. Nakai, 
 T. Vreven, K. Throssell, J. A. Montgomery, Jr., J. E. Peralta, 
 F. Ogliaro, M. J. Bearpark, J. J. Heyd, E. N. Brothers, K. N. Kudin, 
 V. N. Staroverov, T. A. Keith, R. Kobayashi, J. Normand, 
 K. Raghavachari, A. P. Rendell, J. C. Burant, S. S. Iyengar, 
 J. Tomasi, M. Cossi, J. M. Millam, M. Klene, C. Adamo, R. Cammi, 
 J. W. Ochterski, R. L. Martin, K. Morokuma, O. Farkas, 
 J. B. Foresman, and D. J. Fox, Gaussian, Inc., Wallingford CT, 2016.
 
 ******************************************
 Gaussian 16:  ES64L-G16RevA.03 25-Dec-2016
                 9-Sep-2018 
 ******************************************
 %chk=Cr_TS_catal_4_M06L.chk
 %nprocshared=24
 Will use up to   24 processors via shared memory.
 %mem=24GB
 SetLPE:    new flags="-opt 'Tsnet.Node.lindarsharg: ssh'  -nodelist 'n2469.hpc.nrel.gov' -env GAUSS_MDEF=3221225472 -env GAUSS_EXEDIR="/nopt/nrel/apps/gaussian/G16.sandy/g16/bsd:/nopt/nrel/apps/gaussian/G16.sandy/g16/local:/nopt/nrel/apps/gaussian/G16.sandy/g16/extras:/nopt/nrel/apps/gaussian/G16.sandy/g16""
 Will use up to    1 processors via Linda.
 Default route: CacheSize=327680 MaxDisk=128GB
 ----------------------------------------------------------------------
 # m06l/6-311+g(d,p) scf=(xqc,maxconventionalcycles=400) scrf=(smd,solv
 ent=1,4-dioxane) temperature=443.15
 ----------------------------------------------------------------------
 1/4=327680,38=1,112=443150,172=1/1;
 2/4=327680,12=2,17=6,18=5,40=1/2;
 3/4=327680,5=4,6=6,7=111,11=2,25=1,30=1,70=32201,72=31,74=-53/1,2,3;
 4/4=327680/1;
 5/4=327680,5=2,8=3,13=1,38=5,53=31,85=400/2,8;
 6/4=327680,7=2,8=2,9=2,10=2,28=1/1;
 99/4=327680,5=1,9=1/99;
 -------------------
 Title Card Required
 -------------------
 Symbolic Z-matrix:
 Charge =  0 Multiplicity = 4
 Cr                    2.55753   0.09031  -0.08788 
 Cl                    4.53039  -0.26713   0.82376 
 Cl                    2.07169  -2.10888  -0.68725 
 Cl                    2.80204   2.2484   -0.64877 
 
                          Input orientation:                          
 ---------------------------------------------------------------------
 Center     Atomic      Atomic             Coordinates (Angstroms)
 Number     Number       Type             X           Y           Z
 ---------------------------------------------------------------------
      1         24           0        2.557530    0.090313   -0.087880
      2         17           0        4.530391   -0.267129    0.823761
      3         17           0        2.071691   -2.108879   -0.687252
      4         17           0        2.802037    2.248405   -0.648766
 ---------------------------------------------------------------------
                    Distance matrix (angstroms):
                    1          2          3          4
     1  Cr   0.000000
     2  Cl   2.202506   0.000000
     3  Cl   2.330608   3.423508   0.000000
     4  Cl   2.243154   3.388725   4.418236   0.000000
 Stoichiometry    Cl3Cr(4)
 Framework group  C1[X(Cl3Cr)]
 Deg. of freedom     6
 Full point group                 C1      NOp   1
 Largest Abelian subgroup         C1      NOp   1
 Largest concise Abelian subgroup C1      NOp   1
                         Standard orientation:                         
 ---------------------------------------------------------------------
 Center     Atomic      Atomic             Coordinates (Angstroms)
 Number     Number       Type             X           Y           Z
 ---------------------------------------------------------------------
      1         24           0       -0.023286   -0.306927    0.265764
      2         17           0       -0.017393    1.871388   -0.059726
      3         17           0        2.234209   -0.705775   -0.154198
      4         17           0       -2.183942   -0.732304   -0.161272
 ---------------------------------------------------------------------
 Rotational constants (GHZ):           2.9894205           1.4567977           1.0009394
 Standard basis: 6-311+G(d,p) (5D, 7F)
 There are   158 symmetry adapted cartesian basis functions of A   symmetry.
 There are   148 symmetry adapted basis functions of A   symmetry.
   148 basis functions,   253 primitive gaussians,   158 cartesian basis functions
    39 alpha electrons       36 beta electrons
       nuclear repulsion energy       411.3304005851 Hartrees.
 NAtoms=    4 NActive=    4 NUniq=    4 SFac= 1.00D+00 NAtFMM=   60 NAOKFM=F Big=F
 Integral buffers will be    131072 words long.
 Raffenetti 2 integral format.
 Two-electron integral symmetry is turned on.
 ------------------------------------------------------------------------------
 Polarizable Continuum Model (PCM)
 =================================
 Model                : PCM.
 Atomic radii         : SMD-Coulomb.
 Polarization charges : Total charges.
 Charge compensation  : None.
 Solution method      : On-the-fly selection.
 Cavity type          : VdW (van der Waals Surface) (Alpha=1.000).
 Cavity algorithm     : GePol (No added spheres)
                        Default sphere list used, NSphG=    4.
                        Lebedev-Laikov grids with approx.  5.0 points / Ang**2.
                        Smoothing algorithm: York/Karplus (Gamma=1.0000).
                        Polarization charges: spherical gaussians, with
                                              point-specific exponents (IZeta= 3).
                        Self-potential: point-specific (ISelfS= 7).
                        Self-field    : sphere-specific E.n sum rule (ISelfD= 2).
 Solvent              : 1,4-Dioxane, Eps=   2.209900 Eps(inf)=   2.023222
 ------------------------------------------------------------------------------
 Spheres list:
 ISph  on   Nord     Re0    Alpha      Xe            Ye            Ze
    1  Cr      1    1.5115  1.000     -0.023286     -0.306927      0.265764
    2  Cl      2    2.3800  1.000     -0.017393      1.871388     -0.059726
    3  Cl      3    2.3800  1.000      2.234209     -0.705775     -0.154198
    4  Cl      4    2.3800  1.000     -2.183942     -0.732304     -0.161272
 ------------------------------------------------------------------------------
 ------------------------------------------------------------------------------
 Atomic radii for non-electrostatic terms: SMD-CDS.
 ------------------------------------------------------------------------------
 Nuclear repulsion after PCM non-electrostatic terms =      411.3269379453 Hartrees.
 One-electron integrals computed using PRISM.
 NBasis=   148 RedAO= T EigKep=  1.07D-03  NBF=   148
 NBsUse=   148 1.00D-06 EigRej= -1.00D+00 NBFU=   148
 ExpMin= 1.13D-02 ExpMax= 2.37D+05 ExpMxC= 8.06D+03 IAcc=3 IRadAn=         5 AccDes= 0.00D+00
 Harris functional with IExCor= 1009 and IRadAn=       5 diagonalized for initial guess.
 HarFok:  IExCor= 1009 AccDes= 0.00D+00 IRadAn=         5 IDoV= 1 UseB2=F ITyADJ=14
 ICtDFT=  3500011 ScaDFX=  1.000000  1.000000  1.000000  1.000000
 FoFCou: FMM=F IPFlag=           0 FMFlag=      100000 FMFlg1=           0
         NFxFlg=           0 DoJE=T BraDBF=F KetDBF=T FulRan=T
         wScrn=  0.000000 ICntrl=       500 IOpCl=  0 I1Cent=   200000004 NGrid=           0
         NMat0=    1 NMatS0=      1 NMatT0=    0 NMatD0=    1 NMtDS0=    0 NMtDT0=    0
 Petite list used in FoFCou.
 Initial guess <Sx>= 0.0000 <Sy>= 0.0000 <Sz>= 1.5000 <S**2>= 3.7500 S= 1.5000
 Keep J ints in memory in canonical form, NReq=84414002.
 Requested convergence on RMS density matrix=1.00D-08 within 400 cycles.
 Requested convergence on MAX density matrix=1.00D-06.
 Requested convergence on             energy=1.00D-06.
 No special actions if energy rises.
 Inv3:  Mode=1 IEnd=     3479787.
 Iteration    1 A*A^-1 deviation from unit magnitude is 3.44D-15 for    623.
 Iteration    1 A*A^-1 deviation from orthogonality  is 1.80D-15 for   1012    636.
 Iteration    1 A^-1*A deviation from unit magnitude is 3.22D-15 for    623.
 Iteration    1 A^-1*A deviation from orthogonality  is 1.65D-15 for   1065    578.
 EnCoef did   100 forward-backward iterations
 EnCoef did   100 forward-backward iterations
 EnCoef did   100 forward-backward iterations
 EnCoef did     8 forward-backward iterations
 EnCoef did     6 forward-backward iterations
 Error on total polarization charges =  0.01186
 SCF Done:  E(UM06L) =  -2425.17446905     A.U. after   23 cycles
            NFock= 23  Conv=0.78D-08     -V/T= 2.0012
 <Sx>= 0.0000 <Sy>= 0.0000 <Sz>= 1.5000 <S**2>= 3.9018 S= 1.5376
 <L.S>= 0.000000000000E+00
 SMD-CDS (non-electrostatic) energy       (kcal/mol) =      -2.17
 (included in total energy above)
 Annihilation of the first spin contaminant:
 S**2 before annihilation     3.9018,   after     3.7567
 QCSCF skips out because SCF is already converged.

 **********************************************************************

            Population analysis using the SCF density.

 **********************************************************************

 Orbital symmetries:
 Alpha Orbitals:
       Occupied  (A) (A) (A) (A) (A) (A) (A) (A) (A) (A) (A) (A)
                 (A) (A) (A) (A) (A) (A) (A) (A) (A) (A) (A) (A)
                 (A) (A) (A) (A) (A) (A) (A) (A) (A) (A) (A) (A)
                 (A) (A) (A)
       Virtual   (A) (A) (A) (A) (A) (A) (A) (A) (A) (A) (A) (A)
                 (A) (A) (A) (A) (A) (A) (A) (A) (A) (A) (A) (A)
                 (A) (A) (A) (A) (A) (A) (A) (A) (A) (A) (A) (A)
                 (A) (A) (A) (A) (A) (A) (A) (A) (A) (A) (A) (A)
                 (A) (A) (A) (A) (A) (A) (A) (A) (A) (A) (A) (A)
                 (A) (A) (A) (A) (A) (A) (A) (A) (A) (A) (A) (A)
                 (A) (A) (A) (A) (A) (A) (A) (A) (A) (A) (A) (A)
                 (A) (A) (A) (A) (A) (A) (A) (A) (A) (A) (A) (A)
                 (A) (A) (A) (A) (A) (A) (A) (A) (A) (A) (A) (A)
                 (A)
 Beta  Orbitals:
       Occupied  (A) (A) (A) (A) (A) (A) (A) (A) (A) (A) (A) (A)
                 (A) (A) (A) (A) (A) (A) (A) (A) (A) (A) (A) (A)
                 (A) (A) (A) (A) (A) (A) (A) (A) (A) (A) (A) (A)
       Virtual   (A) (A) (A) (A) (A) (A) (A) (A) (A) (A) (A) (A)
                 (A) (A) (A) (A) (A) (A) (A) (A) (A) (A) (A) (A)
                 (A) (A) (A) (A) (A) (A) (A) (A) (A) (A) (A) (A)
                 (A) (A) (A) (A) (A) (A) (A) (A) (A) (A) (A) (A)
                 (A) (A) (A) (A) (A) (A) (A) (A) (A) (A) (A) (A)
                 (A) (A) (A) (A) (A) (A) (A) (A) (A) (A) (A) (A)
                 (A) (A) (A) (A) (A) (A) (A) (A) (A) (A) (A) (A)
                 (A) (A) (A) (A) (A) (A) (A) (A) (A) (A) (A) (A)
                 (A) (A) (A) (A) (A) (A) (A) (A) (A) (A) (A) (A)
                 (A) (A) (A) (A)
 The electronic state is 4-A.
 Alpha  occ. eigenvalues -- -215.33294-101.19333-101.18844-101.18412 -24.74199
 Alpha  occ. eigenvalues --  -20.97006 -20.96869 -20.96379  -9.41193  -9.40729
 Alpha  occ. eigenvalues --   -9.40220  -7.11718  -7.11423  -7.11322  -7.11310
 Alpha  occ. eigenvalues --   -7.10888  -7.10880  -7.10759  -7.10442  -7.10345
 Alpha  occ. eigenvalues --   -3.01258  -1.94577  -1.94197  -1.94101  -0.78353
 Alpha  occ. eigenvalues --   -0.77489  -0.76657  -0.38449  -0.36989  -0.35836
 Alpha  occ. eigenvalues --   -0.34699  -0.33584  -0.32559  -0.31392  -0.30490
 Alpha  occ. eigenvalues --   -0.28436  -0.28222  -0.26594  -0.25996
 Alpha virt. eigenvalues --   -0.23708  -0.19896  -0.04031   0.00245   0.01667
 Alpha virt. eigenvalues --    0.03677   0.03764   0.08000   0.08538   0.08691
 Alpha virt. eigenvalues --    0.08855   0.09031   0.10096   0.11278   0.11810
 Alpha virt. eigenvalues --    0.12053   0.12718   0.13890   0.15981   0.17670
 Alpha virt. eigenvalues --    0.18146   0.19163   0.19756   0.21316   0.23231
 Alpha virt. eigenvalues --    0.28531   0.29903   0.34113   0.43256   0.43996
 Alpha virt. eigenvalues --    0.44119   0.44882   0.45272   0.46316   0.48083
 Alpha virt. eigenvalues --    0.48823   0.50213   0.78477   0.81352   0.82704
 Alpha virt. eigenvalues --    0.83113   0.83988   0.84073   0.84929   0.85444
 Alpha virt. eigenvalues --    0.86259   0.87730   0.88142   0.90959   0.91736
 Alpha virt. eigenvalues --    0.92503   0.95759   1.08611   1.09188   1.09731
 Alpha virt. eigenvalues --    1.10497   1.14147   1.29020   1.30874   1.34545
 Alpha virt. eigenvalues --    1.43059   1.45129   1.52731   2.11681   2.14807
 Alpha virt. eigenvalues --    2.17934   2.19357   2.20089   2.20509   2.21251
 Alpha virt. eigenvalues --    2.37466   2.38201   2.38985   2.39779   2.40108
 Alpha virt. eigenvalues --    2.40540   2.41550   2.64835   2.68880   2.77178
 Alpha virt. eigenvalues --    4.67768   4.68889   4.76696   4.77190   4.94968
 Alpha virt. eigenvalues --    6.75126   6.87569   6.89496   9.73438   9.74752
 Alpha virt. eigenvalues --    9.75732  21.65255  26.04207  26.07413  26.08171
 Alpha virt. eigenvalues --   26.09190  26.09758  26.11831  26.33475  26.42885
 Alpha virt. eigenvalues --   26.49601  29.36635  29.46361  29.48139 127.63707
 Alpha virt. eigenvalues --  216.41342 216.42602 216.43807 684.41433
  Beta  occ. eigenvalues -- -215.33352-101.19412-101.18913-101.18502 -24.67529
  Beta  occ. eigenvalues --  -20.92839 -20.92238 -20.90800  -9.41249  -9.40776
  Beta  occ. eigenvalues --   -9.40283  -7.11912  -7.11541  -7.11515  -7.11332
  Beta  occ. eigenvalues --   -7.10975  -7.10969  -7.10862  -7.10566  -7.10374
  Beta  occ. eigenvalues --   -2.86209  -1.80922  -1.79722  -1.76539  -0.78690
  Beta  occ. eigenvalues --   -0.77854  -0.77141  -0.37204  -0.35505  -0.34222
  Beta  occ. eigenvalues --   -0.33375  -0.32055  -0.31395  -0.30993  -0.30147
  Beta  occ. eigenvalues --   -0.28764
  Beta virt. eigenvalues --   -0.15648  -0.15446  -0.13400  -0.13313  -0.12351
  Beta virt. eigenvalues --   -0.05380  -0.00439   0.02344   0.03795   0.04304
  Beta virt. eigenvalues --    0.08169   0.08567   0.08731   0.08875   0.09203
  Beta virt. eigenvalues --    0.10598   0.11610   0.11798   0.12931   0.13066
  Beta virt. eigenvalues --    0.15102   0.16955   0.17593   0.17885   0.19142
  Beta virt. eigenvalues --    0.19453   0.19595   0.23179   0.25513   0.28726
  Beta virt. eigenvalues --    0.33837   0.43117   0.43701   0.43910   0.44361
  Beta virt. eigenvalues --    0.45002   0.45962   0.47743   0.48146   0.50137
  Beta virt. eigenvalues --    0.78787   0.81321   0.82426   0.82841   0.83614
  Beta virt. eigenvalues --    0.83912   0.84440   0.85158   0.85721   0.87206
  Beta virt. eigenvalues --    0.87655   0.90683   0.91346   0.92011   0.95419
  Beta virt. eigenvalues --    1.09184   1.10133   1.12113   1.15085   1.19237
  Beta virt. eigenvalues --    1.29718   1.30086   1.34744   1.44986   1.48151
  Beta virt. eigenvalues --    1.55287   2.15140   2.18211   2.22340   2.26043
  Beta virt. eigenvalues --    2.27082   2.28362   2.29200   2.37928   2.38727
  Beta virt. eigenvalues --    2.38970   2.40868   2.41884   2.42296   2.45490
  Beta virt. eigenvalues --    2.66351   2.70720   2.78219   4.81676   4.84606
  Beta virt. eigenvalues --    4.86182   4.87402   5.02959   6.93309   7.04406
  Beta virt. eigenvalues --    7.05303   9.73513   9.74847   9.75820  21.76146
  Beta virt. eigenvalues --   26.04225  26.07835  26.08523  26.09193  26.09711
  Beta virt. eigenvalues --   26.12122  26.34277  26.43699  26.50391  29.43033
  Beta virt. eigenvalues --   29.52631  29.54320 127.66991 216.41296 216.42543
  Beta virt. eigenvalues --  216.43754 684.41972
          Condensed to atoms (all electrons):
               1          2          3          4
     1  Cr  23.119151   0.207507   0.232811   0.212440
     2  Cl   0.207507  16.927986  -0.021160  -0.026083
     3  Cl   0.232811  -0.021160  16.878572   0.010089
     4  Cl   0.212440  -0.026083   0.010089  16.843083
          Atomic-Atomic Spin Densities.
               1          2          3          4
     1  Cr   3.501486  -0.074303  -0.059188  -0.073323
     2  Cl  -0.074303  -0.016223   0.011799   0.011914
     3  Cl  -0.059188   0.011799  -0.079568   0.004344
     4  Cl  -0.073323   0.011914   0.004344  -0.048181
 Mulliken charges and spin densities:
               1          2
     1  Cr   0.228090   3.294671
     2  Cl  -0.088250  -0.066813
     3  Cl  -0.100312  -0.122613
     4  Cl  -0.039528  -0.105245
 Sum of Mulliken charges =  -0.00000   3.00000
 Mulliken charges and spin densities with hydrogens summed into heavy atoms:
               1          2
     1  Cr   0.228090   3.294671
     2  Cl  -0.088250  -0.066813
     3  Cl  -0.100312  -0.122613
     4  Cl  -0.039528  -0.105245
 Electronic spatial extent (au):  <R**2>=           1011.2677
 Charge=             -0.0000 electrons
 Dipole moment (field-independent basis, Debye):
    X=             -0.5294    Y=             -1.9402    Z=              1.9777  Tot=              2.8207
 Quadrupole moment (field-independent basis, Debye-Ang):
   XX=            -62.7444   YY=            -55.3172   ZZ=            -51.2057
   XY=              0.4005   XZ=              0.0494   YZ=             -0.9896
 Traceless Quadrupole moment (field-independent basis, Debye-Ang):
   XX=             -6.3220   YY=              1.1052   ZZ=              5.2167
   XY=              0.4005   XZ=              0.0494   YZ=             -0.9896
 Octapole moment (field-independent basis, Debye-Ang**2):
  XXX=             -4.2819  YYY=             -5.6168  ZZZ=              6.1967  XYY=             -0.7569
  XXY=              5.1850  XXZ=              1.9027  XZZ=             -0.6484  YZZ=             -2.6329
  YYZ=              1.5426  XYZ=             -0.0306
 Hexadecapole moment (field-independent basis, Debye-Ang**3):
 XXXX=           -826.7565 YYYY=           -411.2588 ZZZZ=            -68.0188 XXXY=              3.0267
 XXXZ=              0.5155 YYYX=              1.5634 YYYZ=             -4.2145 ZZZX=              0.0810
 ZZZY=             -2.5791 XXYY=           -213.3764 XXZZ=           -150.5820 YYZZ=            -81.8779
 XXYZ=              0.3941 YYXZ=              0.1536 ZZXY=              0.4417
 N-N= 4.113269379453D+02 E-N=-6.584871686004D+03  KE= 2.422310409488D+03
                          Isotropic Fermi Contact Couplings
        Atom                 a.u.       MegaHertz       Gauss      10(-4) cm-1
     1  Cr(53)            -0.18760      15.83105       5.64891       5.28067
     2  Cl(35)            -0.01238      -1.80999      -0.64585      -0.60375
     3  Cl(35)            -0.01912      -2.79435      -0.99709      -0.93210
     4  Cl(35)            -0.01909      -2.78991      -0.99551      -0.93061
 --------------------------------------------------------
       Center         ----  Spin Dipole Couplings  ----
                      3XX-RR        3YY-RR        3ZZ-RR
 --------------------------------------------------------
     1   Atom       -0.938910     -0.237051      1.175961
     2   Atom       -0.014090     -0.645301      0.659391
     3   Atom       -0.460114      0.232675      0.227438
     4   Atom       -0.432310      0.198538      0.233773
 --------------------------------------------------------
                        XY            XZ            YZ
 --------------------------------------------------------
     1   Atom       -0.049744     -0.034937     -0.404475
     2   Atom       -0.008066     -0.034996     -0.067754
     3   Atom        0.053064     -0.388220     -0.290203
     4   Atom       -0.060526      0.369387     -0.315409
 --------------------------------------------------------


 ---------------------------------------------------------------------------------
              Anisotropic Spin Dipole Couplings in Principal Axis System
 ---------------------------------------------------------------------------------

       Atom             a.u.   MegaHertz   Gauss  10(-4) cm-1        Axes

              Baa    -0.9445    28.543    10.185     9.521  0.9955  0.0891  0.0334
     1 Cr(53) Bbb    -0.3392    10.251     3.658     3.419 -0.0947  0.9624  0.2547
              Bcc     1.2837   -38.794   -13.843   -12.940 -0.0094 -0.2567  0.9664
 
              Baa    -0.6490   -33.965   -12.120   -11.330  0.0156  0.9985  0.0521
     2 Cl(35) Bbb    -0.0157    -0.821    -0.293    -0.274  0.9986 -0.0182  0.0499
              Bcc     0.6647    34.787    12.413    11.604 -0.0508 -0.0513  0.9974
 
              Baa    -0.6412   -33.558   -11.974   -11.194  0.8980  0.0886  0.4310
     3 Cl(35) Bbb     0.0236     1.236     0.441     0.412 -0.3246  0.7946  0.5131
              Bcc     0.6176    32.322    11.533    10.782 -0.2970 -0.6006  0.7423
 
              Baa    -0.6042   -31.620   -11.283   -10.547  0.8953 -0.1028 -0.4334
     4 Cl(35) Bbb    -0.0240    -1.255    -0.448    -0.419  0.3337  0.7993  0.4998
              Bcc     0.6281    32.875    11.731    10.966  0.2950 -0.5921  0.7499
 

 ---------------------------------------------------------------------------------

 1\1\GINC-N2469\SP\UM06L\6-311+G(d,p)\Cl3Cr1(4)\YKIM\09-Sep-2018\0\\# m
 06l/6-311+g(d,p) scf=(xqc,maxconventionalcycles=400) scrf=(smd,solvent
 =1,4-dioxane) temperature=443.15\\Title Card Required\\0,4\Cr,0,2.5575
 3,0.090313,-0.08788\Cl,0,4.530391,-0.267129,0.823761\Cl,0,2.071691,-2.
 108879,-0.687252\Cl,0,2.802037,2.248405,-0.648766\\Version=ES64L-G16Re
 vA.03\State=4-A\HF=-2425.1744691\S2=3.901806\S2-1=0.\S2A=3.756653\RMSD
 =7.796e-09\Dipole=-1.0136624,0.3823752,0.2404335\Quadrupole=2.1250722,
 -4.4210868,2.2960146,-1.379465,-1.7224023,0.0058711\PG=C01 [X(Cl3Cr1)]
 \\@


 SUCCESS IS COUNTED SWEETEST
 BY THOSE WHO NE'ER SUCCEED.
 TO COMPREHEND NECTAR
 REQUIRES SOREST NEED.
           EMILY DICKINSON
 Job cpu time:       0 days  0 hours  7 minutes 29.3 seconds.
 Elapsed time:       0 days  0 hours  0 minutes 21.1 seconds.
 File lengths (MBytes):  RWF=     40 Int=      0 D2E=      0 Chk=      3 Scr=      1
 Normal termination of Gaussian 16 at Sun Sep  9 22:51:21 2018.
