 Entering Gaussian System, Link 0=g16
 Initial command:
 /nopt/nrel/apps/gaussian/G16.sandy/g16/l1.exe "/scratch/ykim/gaussianScratch.5606400/Gau-12588.inp" -scrdir="/scratch/ykim/gaussianScratch.5606400/"
 Default linda workers: n2470
 Default is to use  24 SMP processors on each worker.
 Entering Link 1 = /nopt/nrel/apps/gaussian/G16.sandy/g16/l1.exe PID=     12589.
  
 Copyright (c) 1988,1990,1992,1993,1995,1998,2003,2009,2016,
            Gaussian, Inc.  All Rights Reserved.
  
 This is part of the Gaussian(R) 16 program.  It is based on
 the Gaussian(R) 09 system (copyright 2009, Gaussian, Inc.),
 the Gaussian(R) 03 system (copyright 2003, Gaussian, Inc.),
 the Gaussian(R) 98 system (copyright 1998, Gaussian, Inc.),
 the Gaussian(R) 94 system (copyright 1995, Gaussian, Inc.),
 the Gaussian 92(TM) system (copyright 1992, Gaussian, Inc.),
 the Gaussian 90(TM) system (copyright 1990, Gaussian, Inc.),
 the Gaussian 88(TM) system (copyright 1988, Gaussian, Inc.),
 the Gaussian 86(TM) system (copyright 1986, Carnegie Mellon
 University), and the Gaussian 82(TM) system (copyright 1983,
 Carnegie Mellon University). Gaussian is a federally registered
 trademark of Gaussian, Inc.
  
 This software contains proprietary and confidential information,
 including trade secrets, belonging to Gaussian, Inc.
  
 This software is provided under written license and may be
 used, copied, transmitted, or stored only in accord with that
 written license.
  
 The following legend is applicable only to US Government
 contracts under FAR:
  
                    RESTRICTED RIGHTS LEGEND
  
 Use, reproduction and disclosure by the US Government is
 subject to restrictions as set forth in subparagraphs (a)
 and (c) of the Commercial Computer Software - Restricted
 Rights clause in FAR 52.227-19.
  
 Gaussian, Inc.
 340 Quinnipiac St., Bldg. 40, Wallingford CT 06492
  
  
 ---------------------------------------------------------------
 Warning -- This program may not be used in any manner that
 competes with the business of Gaussian, Inc. or will provide
 assistance to any competitor of Gaussian, Inc.  The licensee
 of this program is prohibited from giving any competitor of
 Gaussian, Inc. access to this program.  By using this program,
 the user acknowledges that Gaussian, Inc. is engaged in the
 business of creating and licensing software in the field of
 computational chemistry and represents and warrants to the
 licensee that it is not a competitor of Gaussian, Inc. and that
 it will not use this program in any manner prohibited above.
 ---------------------------------------------------------------
  

 Cite this work as:
 Gaussian 16, Revision A.03,
 M. J. Frisch, G. W. Trucks, H. B. Schlegel, G. E. Scuseria, 
 M. A. Robb, J. R. Cheeseman, G. Scalmani, V. Barone, 
 G. A. Petersson, H. Nakatsuji, X. Li, M. Caricato, A. V. Marenich, 
 J. Bloino, B. G. Janesko, R. Gomperts, B. Mennucci, H. P. Hratchian, 
 J. V. Ortiz, A. F. Izmaylov, J. L. Sonnenberg, D. Williams-Young, 
 F. Ding, F. Lipparini, F. Egidi, J. Goings, B. Peng, A. Petrone, 
 T. Henderson, D. Ranasinghe, V. G. Zakrzewski, J. Gao, N. Rega, 
 G. Zheng, W. Liang, M. Hada, M. Ehara, K. Toyota, R. Fukuda, 
 J. Hasegawa, M. Ishida, T. Nakajima, Y. Honda, O. Kitao, H. Nakai, 
 T. Vreven, K. Throssell, J. A. Montgomery, Jr., J. E. Peralta, 
 F. Ogliaro, M. J. Bearpark, J. J. Heyd, E. N. Brothers, K. N. Kudin, 
 V. N. Staroverov, T. A. Keith, R. Kobayashi, J. Normand, 
 K. Raghavachari, A. P. Rendell, J. C. Burant, S. S. Iyengar, 
 J. Tomasi, M. Cossi, J. M. Millam, M. Klene, C. Adamo, R. Cammi, 
 J. W. Ochterski, R. L. Martin, K. Morokuma, O. Farkas, 
 J. B. Foresman, and D. J. Fox, Gaussian, Inc., Wallingford CT, 2016.
 
 ******************************************
 Gaussian 16:  ES64L-G16RevA.03 25-Dec-2016
                 9-Sep-2018 
 ******************************************
 %chk=Fe2_TS_sugar_5_M06L.chk
 %nprocshared=24
 Will use up to   24 processors via shared memory.
 %mem=24GB
 SetLPE:    new flags="-opt 'Tsnet.Node.lindarsharg: ssh'  -nodelist 'n2470.hpc.nrel.gov' -env GAUSS_MDEF=3221225472 -env GAUSS_EXEDIR="/nopt/nrel/apps/gaussian/G16.sandy/g16/bsd:/nopt/nrel/apps/gaussian/G16.sandy/g16/local:/nopt/nrel/apps/gaussian/G16.sandy/g16/extras:/nopt/nrel/apps/gaussian/G16.sandy/g16""
 Will use up to    1 processors via Linda.
 Default route: CacheSize=327680 MaxDisk=128GB
 ----------------------------------------------------------------------
 # m06l/6-311+g(d,p) scf=(xqc,maxconventionalcycles=400) scrf=(smd,solv
 ent=1,4-dioxane) temperature=443.15
 ----------------------------------------------------------------------
 1/4=327680,38=1,112=443150,172=1/1;
 2/4=327680,12=2,17=6,18=5,40=1/2;
 3/4=327680,5=4,6=6,7=111,11=2,25=1,30=1,70=32201,72=31,74=-53/1,2,3;
 4/4=327680/1;
 5/4=327680,5=2,8=3,13=1,38=5,53=31,85=400/2,8;
 6/4=327680,7=2,8=2,9=2,10=2,28=1/1;
 99/4=327680,5=1,9=1/99;
 -------------------
 Title Card Required
 -------------------
 Symbolic Z-matrix:
 Charge =  0 Multiplicity = 1
 O                     1.54471  -1.0962   -0.74709 
 C                     0.36523  -0.5815   -0.82767 
 H                    -0.24534  -0.74607  -1.7263 
 O                     0.24842   0.06388   1.43359 
 C                    -0.34528  -0.01858   0.26653 
 H                     0.38651   0.68881  -0.7842 
 C                    -1.7443    0.53473   0.16086 
 H                    -1.94891   0.83128  -0.87588 
 C                    -2.76045  -0.53804   0.5844 
 H                    -2.49074  -0.91042   1.57998 
 C                    -4.19786  -0.00141   0.65891 
 H                    -4.26615   0.69997   1.49595 
 C                    -4.62944   0.74582  -0.58941 
 H                    -5.70626   0.93645  -0.53097 
 H                    -4.11734   1.71756  -0.64577 
 O                    -4.3127   -0.05464  -1.73286 
 H                    -4.76789   0.29321  -2.50419 
 O                    -5.06607  -1.07638   0.96069 
 H                    -4.77415  -1.8295    0.43104 
 O                    -2.66633  -1.65475  -0.2807 
 H                    -3.05106  -1.38026  -1.1279 
 O                    -1.86613   1.62586   1.06555 
 H                    -1.50674   2.42094   0.65312 
 H                    -0.23546   0.72291   1.96816 
 
                          Input orientation:                          
 ---------------------------------------------------------------------
 Center     Atomic      Atomic             Coordinates (Angstroms)
 Number     Number       Type             X           Y           Z
 ---------------------------------------------------------------------
      1          8           0        1.544713   -1.096198   -0.747087
      2          6           0        0.365227   -0.581496   -0.827665
      3          1           0       -0.245335   -0.746072   -1.726298
      4          8           0        0.248419    0.063880    1.433588
      5          6           0       -0.345278   -0.018579    0.266532
      6          1           0        0.386508    0.688810   -0.784201
      7          6           0       -1.744295    0.534727    0.160860
      8          1           0       -1.948908    0.831275   -0.875881
      9          6           0       -2.760447   -0.538042    0.584400
     10          1           0       -2.490738   -0.910415    1.579982
     11          6           0       -4.197863   -0.001406    0.658911
     12          1           0       -4.266148    0.699969    1.495950
     13          6           0       -4.629440    0.745817   -0.589410
     14          1           0       -5.706260    0.936453   -0.530965
     15          1           0       -4.117340    1.717564   -0.645765
     16          8           0       -4.312699   -0.054643   -1.732857
     17          1           0       -4.767893    0.293212   -2.504187
     18          8           0       -5.066070   -1.076377    0.960686
     19          1           0       -4.774148   -1.829500    0.431041
     20          8           0       -2.666334   -1.654749   -0.280702
     21          1           0       -3.051060   -1.380259   -1.127901
     22          8           0       -1.866130    1.625861    1.065551
     23          1           0       -1.506738    2.420942    0.653116
     24          1           0       -0.235460    0.722906    1.968162
 ---------------------------------------------------------------------
                    Distance matrix (angstroms):
                    1          2          3          4          5
     1  O    0.000000
     2  C    1.289418   0.000000
     3  H    2.070197   1.098823   0.000000
     4  O    2.789534   2.354447   3.299196   0.000000
     5  C    2.400157   1.420901   2.123819   1.311981   0.000000
     6  H    2.128161   1.271227   1.829114   2.308288   1.462857
     7  C    3.781780   2.583257   2.729229   2.410901   1.508165
     8  H    3.992133   2.711728   2.472528   3.278839   2.144525
     9  C    4.540793   3.430110   3.421752   3.183819   2.490768
    10  H    4.662041   3.749865   4.000041   2.910956   2.668992
    11  C    6.012701   4.834067   4.676134   4.513736   3.872553
    12  H    6.482556   5.337694   5.351715   4.559585   4.171451
    13  C    6.445002   5.173512   4.768503   5.324572   4.435198
    14  H    7.533591   6.265393   5.837929   6.330802   5.503473
    15  H    6.323477   5.041049   4.714815   5.110600   4.251462
    16  O    6.030411   4.793739   4.125720   5.553757   4.442892
    17  H    6.698273   5.470353   4.705184   6.381383   5.228157
    18  O    6.827835   5.739520   5.528876   5.455971   4.887398
    19  H    6.469445   5.436454   5.132063   5.460418   4.787629
    20  O    4.273454   3.262116   2.962546   3.793186   2.892027
    21  H    4.620264   3.521247   2.938089   4.419652   3.334647
    22  O    4.725369   3.665467   4.005929   2.654534   2.378152
    23  H    4.862324   3.835570   4.157250   3.040634   2.729414
    24  H    3.721657   3.143078   3.975805   0.976844   1.859410
                    6          7          8          9         10
     6  H    0.000000
     7  C    2.336066   0.000000
     8  H    2.341553   1.097561   0.000000
     9  C    3.644388   1.537135   2.160103   0.000000
    10  H    4.052829   2.158592   3.059138   1.096626   0.000000
    11  C    4.855453   2.560369   2.847234   1.536130   2.142182
    12  H    5.181353   2.858236   3.318497   2.151913   2.398433
    13  C    5.020053   2.988566   2.697150   2.553284   3.467479
    14  H    6.103055   4.041927   3.774616   3.477929   4.266919
    15  H    4.621920   2.771478   2.353839   2.905550   3.808682
    16  O    4.851311   3.245030   2.665852   2.830696   3.876440
    17  H    5.448183   4.037691   3.299632   3.776267   4.828518
    18  O    5.990920   3.777508   4.090087   2.397351   2.653942
    19  H    5.869503   3.852606   4.095088   2.397160   2.716384
    20  O    3.881446   2.416389   2.655043   1.415731   2.011719
    21  H    4.026916   2.652491   2.483774   1.930223   2.804879
    22  O    3.061703   1.422632   2.099375   2.390353   2.662230
    23  H    2.941180   1.963812   2.249530   3.214358   3.595174
    24  H    2.821969   2.361850   3.322082   3.143302   2.811530
                   11         12         13         14         15
    11  C    0.000000
    12  H    1.094177   0.000000
    13  C    1.517533   2.117265   0.000000
    14  H    2.137907   2.497645   1.095125   0.000000
    15  H    2.159519   2.375834   1.099870   1.774255   0.000000
    16  O    2.395115   3.316142   1.431269   2.090174   2.088217
    17  H    3.227526   4.051950   1.972408   2.277695   2.430171
    18  O    1.414360   2.020344   2.431838   2.585798   3.359595
    19  H    1.930274   2.791112   2.773899   3.073237   3.764648
    20  O    2.441720   3.355681   3.116377   4.002263   3.689334
    21  H    2.531618   3.562075   2.702120   3.574014   3.311482
    22  O    2.872339   2.608181   3.339050   4.215536   2.829304
    23  H    3.620767   3.359533   3.755154   4.608876   2.999513
    24  H    4.235493   4.058319   5.084168   6.018379   4.784449
                   16         17         18         19         20
    16  O    0.000000
    17  H    0.960809   0.000000
    18  O    2.977697   3.737650   0.000000
    19  H    2.836460   3.622362   0.965886   0.000000
    20  O    2.716544   3.626981   2.763022   2.231590   0.000000
    21  H    1.927424   2.764450   2.918014   2.366675   0.970106
    22  O    4.079324   4.789490   4.189595   4.560558   3.635261
    23  H    4.437883   5.013076   4.999468   5.365775   4.339117
    24  H    5.561115   6.381966   5.252354   5.429291   4.076737
                   21         22         23         24
    21  H    0.000000
    22  O    3.905387   0.000000
    23  H    4.472816   0.965101   0.000000
    24  H    4.683643   2.071019   2.495760   0.000000
 Stoichiometry    C6H12O6
 Framework group  C1[X(C6H12O6)]
 Deg. of freedom    66
 Full point group                 C1      NOp   1
 Largest Abelian subgroup         C1      NOp   1
 Largest concise Abelian subgroup C1      NOp   1
                         Standard orientation:                         
 ---------------------------------------------------------------------
 Center     Atomic      Atomic             Coordinates (Angstroms)
 Number     Number       Type             X           Y           Z
 ---------------------------------------------------------------------
      1          8           0        3.729023   -1.240718    0.079957
      2          6           0        2.532805   -0.972712   -0.319836
      3          1           0        1.901024   -1.770300   -0.734707
      4          8           0        2.463947    1.187322    0.614474
      5          6           0        1.838591    0.233721   -0.034273
      6          1           0        2.517383   -0.135566   -1.276375
      7          6           0        0.421138    0.507610   -0.470592
      8          1           0        0.177060   -0.106902   -1.346629
      9          6           0       -0.549467    0.161176    0.669887
     10          1           0       -0.239306    0.695580    1.575868
     11          6           0       -1.999436    0.564226    0.361936
     12          1           0       -2.063775    1.656455    0.350916
     13          6           0       -2.490032    0.071865   -0.987065
     14          1           0       -3.569859    0.242125   -1.052514
     15          1           0       -2.009109    0.640834   -1.796202
     16          8           0       -2.183593   -1.321366   -1.103398
     17          1           0       -2.671683   -1.696841   -1.840921
     18          8           0       -2.825777    0.121490    1.420973
     19          1           0       -2.527326   -0.766316    1.656906
     20          8           0       -0.447740   -1.215623    0.983525
     21          1           0       -0.865484   -1.696555    0.251883
     22          8           0        0.293654    1.899007   -0.738259
     23          1           0        0.616713    2.081067   -1.629274
     24          1           0        1.976668    2.020206    0.462529
 ---------------------------------------------------------------------
 Rotational constants (GHZ):           1.5678640           0.5329888           0.4948434
 Standard basis: 6-311+G(d,p) (5D, 7F)
 There are   348 symmetry adapted cartesian basis functions of A   symmetry.
 There are   336 symmetry adapted basis functions of A   symmetry.
   336 basis functions,   528 primitive gaussians,   348 cartesian basis functions
    48 alpha electrons       48 beta electrons
       nuclear repulsion energy       807.0584908590 Hartrees.
 NAtoms=   24 NActive=   24 NUniq=   24 SFac= 1.00D+00 NAtFMM=   60 NAOKFM=F Big=F
 Integral buffers will be    131072 words long.
 Raffenetti 2 integral format.
 Two-electron integral symmetry is turned on.
 ------------------------------------------------------------------------------
 Polarizable Continuum Model (PCM)
 =================================
 Model                : PCM.
 Atomic radii         : SMD-Coulomb.
 Polarization charges : Total charges.
 Charge compensation  : None.
 Solution method      : On-the-fly selection.
 Cavity type          : VdW (van der Waals Surface) (Alpha=1.000).
 Cavity algorithm     : GePol (No added spheres)
                        Default sphere list used, NSphG=   24.
                        Lebedev-Laikov grids with approx.  5.0 points / Ang**2.
                        Smoothing algorithm: York/Karplus (Gamma=1.0000).
                        Polarization charges: spherical gaussians, with
                                              point-specific exponents (IZeta= 3).
                        Self-potential: point-specific (ISelfS= 7).
                        Self-field    : sphere-specific E.n sum rule (ISelfD= 2).
 Solvent              : 1,4-Dioxane, Eps=   2.209900 Eps(inf)=   2.023222
 ------------------------------------------------------------------------------
 ------------------------------------------------------------------------------
 Atomic radii for non-electrostatic terms: SMD-CDS.
 ------------------------------------------------------------------------------
 Nuclear repulsion after PCM non-electrostatic terms =      807.0510924294 Hartrees.
 One-electron integrals computed using PRISM.
 NBasis=   336 RedAO= T EigKep=  8.28D-06  NBF=   336
 NBsUse=   336 1.00D-06 EigRej= -1.00D+00 NBFU=   336
 ExpMin= 4.38D-02 ExpMax= 8.59D+03 ExpMxC= 1.30D+03 IAcc=3 IRadAn=         5 AccDes= 0.00D+00
 Harris functional with IExCor= 1009 and IRadAn=       5 diagonalized for initial guess.
 HarFok:  IExCor= 1009 AccDes= 0.00D+00 IRadAn=         5 IDoV= 1 UseB2=F ITyADJ=14
 ICtDFT=  3500011 ScaDFX=  1.000000  1.000000  1.000000  1.000000
 FoFCou: FMM=F IPFlag=           0 FMFlag=      100000 FMFlg1=           0
         NFxFlg=           0 DoJE=T BraDBF=F KetDBF=T FulRan=T
         wScrn=  0.000000 ICntrl=       500 IOpCl=  0 I1Cent=   200000004 NGrid=           0
         NMat0=    1 NMatS0=      1 NMatT0=    0 NMatD0=    1 NMtDS0=    0 NMtDT0=    0
 Petite list used in FoFCou.
 Requested convergence on RMS density matrix=1.00D-08 within 400 cycles.
 Requested convergence on MAX density matrix=1.00D-06.
 Requested convergence on             energy=1.00D-06.
 No special actions if energy rises.
 Inv3:  Mode=1 IEnd=    10345347.
 Iteration    1 A*A^-1 deviation from unit magnitude is 9.21D-15 for   1857.
 Iteration    1 A*A^-1 deviation from orthogonality  is 2.36D-15 for   1847   1642.
 Iteration    1 A^-1*A deviation from unit magnitude is 8.99D-15 for   1857.
 Iteration    1 A^-1*A deviation from orthogonality  is 2.32D-15 for   1847   1642.
 EnCoef did     1 forward-backward iterations
 EnCoef did     4 forward-backward iterations
 Error on total polarization charges =  0.01159
 SCF Done:  E(RM06L) =  -687.226824761     A.U. after   18 cycles
            NFock= 18  Conv=0.30D-08     -V/T= 2.0036
 SMD-CDS (non-electrostatic) energy       (kcal/mol) =      -4.64
 (included in total energy above)
 QCSCF skips out because SCF is already converged.

 **********************************************************************

            Population analysis using the SCF density.

 **********************************************************************

 Orbital symmetries:
       Occupied  (A) (A) (A) (A) (A) (A) (A) (A) (A) (A) (A) (A)
                 (A) (A) (A) (A) (A) (A) (A) (A) (A) (A) (A) (A)
                 (A) (A) (A) (A) (A) (A) (A) (A) (A) (A) (A) (A)
                 (A) (A) (A) (A) (A) (A) (A) (A) (A) (A) (A) (A)
       Virtual   (A) (A) (A) (A) (A) (A) (A) (A) (A) (A) (A) (A)
                 (A) (A) (A) (A) (A) (A) (A) (A) (A) (A) (A) (A)
                 (A) (A) (A) (A) (A) (A) (A) (A) (A) (A) (A) (A)
                 (A) (A) (A) (A) (A) (A) (A) (A) (A) (A) (A) (A)
                 (A) (A) (A) (A) (A) (A) (A) (A) (A) (A) (A) (A)
                 (A) (A) (A) (A) (A) (A) (A) (A) (A) (A) (A) (A)
                 (A) (A) (A) (A) (A) (A) (A) (A) (A) (A) (A) (A)
                 (A) (A) (A) (A) (A) (A) (A) (A) (A) (A) (A) (A)
                 (A) (A) (A) (A) (A) (A) (A) (A) (A) (A) (A) (A)
                 (A) (A) (A) (A) (A) (A) (A) (A) (A) (A) (A) (A)
                 (A) (A) (A) (A) (A) (A) (A) (A) (A) (A) (A) (A)
                 (A) (A) (A) (A) (A) (A) (A) (A) (A) (A) (A) (A)
                 (A) (A) (A) (A) (A) (A) (A) (A) (A) (A) (A) (A)
                 (A) (A) (A) (A) (A) (A) (A) (A) (A) (A) (A) (A)
                 (A) (A) (A) (A) (A) (A) (A) (A) (A) (A) (A) (A)
                 (A) (A) (A) (A) (A) (A) (A) (A) (A) (A) (A) (A)
                 (A) (A) (A) (A) (A) (A) (A) (A) (A) (A) (A) (A)
                 (A) (A) (A) (A) (A) (A) (A) (A) (A) (A) (A) (A)
                 (A) (A) (A) (A) (A) (A) (A) (A) (A) (A) (A) (A)
                 (A) (A) (A) (A) (A) (A) (A) (A) (A) (A) (A) (A)
                 (A) (A) (A) (A) (A) (A) (A) (A) (A) (A) (A) (A)
                 (A) (A) (A) (A) (A) (A) (A) (A) (A) (A) (A) (A)
                 (A) (A) (A) (A) (A) (A) (A) (A) (A) (A) (A) (A)
                 (A) (A) (A) (A) (A) (A) (A) (A) (A) (A) (A) (A)
 The electronic state is 1-A.
 Alpha  occ. eigenvalues --  -19.03423 -19.01780 -19.00160 -18.98399 -18.97436
 Alpha  occ. eigenvalues --  -18.89440 -10.16033 -10.14665 -10.12643 -10.12020
 Alpha  occ. eigenvalues --  -10.11737 -10.11676  -1.09201  -1.04631  -1.03700
 Alpha  occ. eigenvalues --   -1.01798  -1.00035  -0.93690  -0.78501  -0.74888
 Alpha  occ. eigenvalues --   -0.69897  -0.63502  -0.58262  -0.57538  -0.53982
 Alpha  occ. eigenvalues --   -0.53022  -0.51332  -0.48114  -0.47806  -0.44748
 Alpha  occ. eigenvalues --   -0.44407  -0.42897  -0.41729  -0.41098  -0.38285
 Alpha  occ. eigenvalues --   -0.36753  -0.36407  -0.35992  -0.34500  -0.34223
 Alpha  occ. eigenvalues --   -0.31935  -0.30294  -0.30065  -0.27448  -0.26675
 Alpha  occ. eigenvalues --   -0.24808  -0.20337  -0.18223
 Alpha virt. eigenvalues --   -0.04627  -0.02666  -0.01129   0.00802   0.01223
 Alpha virt. eigenvalues --    0.02553   0.03237   0.03873   0.04629   0.04914
 Alpha virt. eigenvalues --    0.05713   0.06304   0.06621   0.07603   0.09081
 Alpha virt. eigenvalues --    0.09451   0.10228   0.10898   0.11170   0.11915
 Alpha virt. eigenvalues --    0.12283   0.12491   0.13224   0.13878   0.14065
 Alpha virt. eigenvalues --    0.14622   0.14998   0.15578   0.15882   0.16399
 Alpha virt. eigenvalues --    0.16629   0.17072   0.17557   0.18000   0.18936
 Alpha virt. eigenvalues --    0.19362   0.19419   0.20425   0.21902   0.22357
 Alpha virt. eigenvalues --    0.22647   0.23320   0.24238   0.24347   0.25081
 Alpha virt. eigenvalues --    0.25550   0.26329   0.26815   0.28459   0.28858
 Alpha virt. eigenvalues --    0.29058   0.30848   0.30968   0.31509   0.31855
 Alpha virt. eigenvalues --    0.32770   0.33543   0.33944   0.34160   0.35333
 Alpha virt. eigenvalues --    0.35495   0.35859   0.36543   0.36957   0.37400
 Alpha virt. eigenvalues --    0.37806   0.39224   0.39549   0.41423   0.42377
 Alpha virt. eigenvalues --    0.43168   0.44973   0.46456   0.47815   0.49254
 Alpha virt. eigenvalues --    0.51092   0.51859   0.52375   0.53855   0.54585
 Alpha virt. eigenvalues --    0.55277   0.56747   0.57062   0.58057   0.59049
 Alpha virt. eigenvalues --    0.60191   0.61945   0.63129   0.64916   0.66011
 Alpha virt. eigenvalues --    0.67059   0.67980   0.68483   0.69538   0.70975
 Alpha virt. eigenvalues --    0.71280   0.72306   0.73970   0.75807   0.79030
 Alpha virt. eigenvalues --    0.80576   0.83945   0.86147   0.89653   0.91962
 Alpha virt. eigenvalues --    0.93744   0.94675   0.99172   1.01065   1.02151
 Alpha virt. eigenvalues --    1.04187   1.06555   1.07166   1.08890   1.09630
 Alpha virt. eigenvalues --    1.10949   1.13330   1.14903   1.15177   1.16574
 Alpha virt. eigenvalues --    1.16981   1.18968   1.19876   1.20643   1.21699
 Alpha virt. eigenvalues --    1.22333   1.23030   1.25581   1.26662   1.27643
 Alpha virt. eigenvalues --    1.30210   1.30448   1.34574   1.36313   1.39855
 Alpha virt. eigenvalues --    1.40835   1.42704   1.44248   1.45108   1.47752
 Alpha virt. eigenvalues --    1.50046   1.51074   1.52839   1.54149   1.54636
 Alpha virt. eigenvalues --    1.55127   1.58151   1.59762   1.60432   1.61198
 Alpha virt. eigenvalues --    1.62652   1.64556   1.65006   1.66763   1.67502
 Alpha virt. eigenvalues --    1.69435   1.69983   1.72284   1.73745   1.74880
 Alpha virt. eigenvalues --    1.77129   1.80251   1.81170   1.82176   1.83802
 Alpha virt. eigenvalues --    1.85183   1.86907   1.90829   1.91743   1.93372
 Alpha virt. eigenvalues --    1.96595   2.00470   2.02000   2.03824   2.04800
 Alpha virt. eigenvalues --    2.05962   2.06697   2.07138   2.09069   2.11929
 Alpha virt. eigenvalues --    2.13585   2.16158   2.17798   2.20841   2.21416
 Alpha virt. eigenvalues --    2.26675   2.28301   2.31151   2.31849   2.33466
 Alpha virt. eigenvalues --    2.34732   2.40648   2.44094   2.44945   2.50328
 Alpha virt. eigenvalues --    2.51771   2.55973   2.61385   2.64005   2.65046
 Alpha virt. eigenvalues --    2.68169   2.69039   2.71934   2.73089   2.75732
 Alpha virt. eigenvalues --    2.78976   2.80860   2.85575   2.87941   2.88964
 Alpha virt. eigenvalues --    2.92943   2.94657   2.95913   2.96887   3.02054
 Alpha virt. eigenvalues --    3.02234   3.03400   3.07555   3.08647   3.09797
 Alpha virt. eigenvalues --    3.12154   3.13520   3.14262   3.15877   3.17003
 Alpha virt. eigenvalues --    3.19600   3.20306   3.21359   3.23979   3.25022
 Alpha virt. eigenvalues --    3.29415   3.31502   3.33350   3.34531   3.36560
 Alpha virt. eigenvalues --    3.38964   3.41832   3.43973   3.52846   3.57316
 Alpha virt. eigenvalues --    3.58473   3.78973   3.81014   3.85183   3.87506
 Alpha virt. eigenvalues --    3.90355   3.93378   3.97412   3.99400   4.03002
 Alpha virt. eigenvalues --    4.05145   4.05602   4.08363   4.19795   4.22478
 Alpha virt. eigenvalues --    4.25866   4.33982   4.38251   5.12853   5.13618
 Alpha virt. eigenvalues --    5.20371   5.23280   5.24114   5.24692   5.29408
 Alpha virt. eigenvalues --    5.45952   5.51217   5.51467   5.51771   5.53847
 Alpha virt. eigenvalues --    5.72648   5.74089   5.78267   5.79669   5.81600
 Alpha virt. eigenvalues --    5.96569  23.83390  23.90345  23.92678  23.93330
 Alpha virt. eigenvalues --   23.96772  24.08107  50.16061  50.17474  50.18041
 Alpha virt. eigenvalues --   50.20114  50.25551  50.29032
          Condensed to atoms (all electrons):
               1          2          3          4          5          6
     1  O    8.302732   0.394028  -0.025187   0.021427  -0.294301  -0.039700
     2  C    0.394028   6.677662   0.418456  -0.137005  -1.431149  -0.124183
     3  H   -0.025187   0.418456   0.637486   0.004191  -0.231430  -0.039137
     4  O    0.021427  -0.137005   0.004191   7.753950   0.306551  -0.074080
     5  C   -0.294301  -1.431149  -0.231430   0.306551  13.198944   0.266865
     6  H   -0.039700  -0.124183  -0.039137  -0.074080   0.266865   0.710131
     7  C    0.124790  -0.459805   0.075254   0.066450  -4.668071   0.248633
     8  H   -0.000506   0.067835  -0.002588   0.011531  -0.197841  -0.014819
     9  C    0.002345   0.116223   0.040039  -0.087035   0.223235  -0.054056
    10  H   -0.000074   0.002406  -0.000648   0.005735  -0.106580   0.000260
    11  C    0.003211   0.079465   0.002986   0.027132  -0.665043   0.004036
    12  H   -0.000008  -0.000309  -0.000001  -0.000024   0.002344  -0.000016
    13  C    0.000188   0.027019   0.000944   0.003028  -0.210882   0.000364
    14  H   -0.000000  -0.000207  -0.000001   0.000001   0.005030   0.000000
    15  H    0.000009  -0.000527  -0.000021  -0.000116   0.006220   0.000105
    16  O   -0.000052  -0.003695  -0.001187  -0.000113   0.019303   0.000188
    17  H    0.000003  -0.000786   0.000026   0.000005  -0.001974   0.000010
    18  O    0.000024  -0.003210  -0.000038  -0.000180  -0.002371   0.000099
    19  H   -0.000016   0.000925  -0.000026   0.000058   0.003851  -0.000010
    20  O   -0.003877   0.068114  -0.006719  -0.001177   0.025804  -0.008642
    21  H    0.000634  -0.008889  -0.001572  -0.000461  -0.034502   0.001450
    22  O   -0.001766   0.106969   0.000536   0.005569  -0.192560  -0.033551
    23  H   -0.000014  -0.012388  -0.000049  -0.003341   0.047032   0.003651
    24  H    0.000157   0.096833   0.000098   0.265019  -0.028773  -0.000014
               7          8          9         10         11         12
     1  O    0.124790  -0.000506   0.002345  -0.000074   0.003211  -0.000008
     2  C   -0.459805   0.067835   0.116223   0.002406   0.079465  -0.000309
     3  H    0.075254  -0.002588   0.040039  -0.000648   0.002986  -0.000001
     4  O    0.066450   0.011531  -0.087035   0.005735   0.027132  -0.000024
     5  C   -4.668071  -0.197841   0.223235  -0.106580  -0.665043   0.002344
     6  H    0.248633  -0.014819  -0.054056   0.000260   0.004036  -0.000016
     7  C   12.066192   0.363647  -2.026942   0.063996   0.855448   0.009317
     8  H    0.363647   0.562370   0.020189   0.004869  -0.012703  -0.000528
     9  C   -2.026942   0.020189   8.713072   0.372745  -1.801357  -0.019392
    10  H    0.063996   0.004869   0.372745   0.517440  -0.010713  -0.005226
    11  C    0.855448  -0.012703  -1.801357  -0.010713   7.614257   0.300536
    12  H    0.009317  -0.000528  -0.019392  -0.005226   0.300536   0.561595
    13  C   -0.086312   0.045041   0.321822   0.027182  -0.314171   0.013400
    14  H   -0.008946   0.000180   0.058744  -0.000222  -0.085488  -0.005372
    15  H    0.046149  -0.008057  -0.057698  -0.000635   0.032129  -0.002081
    16  O   -0.074832  -0.003934   0.082725  -0.001176  -0.176355   0.017361
    17  H    0.001278   0.000371  -0.002691   0.000119  -0.016612   0.000905
    18  O    0.073986  -0.002303  -0.216310  -0.002159   0.475164  -0.052412
    19  H    0.017766   0.000164  -0.036845  -0.000799   0.008311   0.007102
    20  O   -0.291529   0.007421   0.339945  -0.051067  -0.161505   0.014315
    21  H    0.065209  -0.004536   0.020541   0.006202  -0.000362  -0.002703
    22  O   -0.010026  -0.012244  -0.042929   0.004370   0.057057  -0.002734
    23  H    0.040683  -0.011973  -0.014835  -0.000223  -0.002799  -0.000036
    24  H   -0.063550   0.001247  -0.022979   0.000611   0.012746  -0.000154
              13         14         15         16         17         18
     1  O    0.000188  -0.000000   0.000009  -0.000052   0.000003   0.000024
     2  C    0.027019  -0.000207  -0.000527  -0.003695  -0.000786  -0.003210
     3  H    0.000944  -0.000001  -0.000021  -0.001187   0.000026  -0.000038
     4  O    0.003028   0.000001  -0.000116  -0.000113   0.000005  -0.000180
     5  C   -0.210882   0.005030   0.006220   0.019303  -0.001974  -0.002371
     6  H    0.000364   0.000000   0.000105   0.000188   0.000010   0.000099
     7  C   -0.086312  -0.008946   0.046149  -0.074832   0.001278   0.073986
     8  H    0.045041   0.000180  -0.008057  -0.003934   0.000371  -0.002303
     9  C    0.321822   0.058744  -0.057698   0.082725  -0.002691  -0.216310
    10  H    0.027182  -0.000222  -0.000635  -0.001176   0.000119  -0.002159
    11  C   -0.314171  -0.085488   0.032129  -0.176355  -0.016612   0.475164
    12  H    0.013400  -0.005372  -0.002081   0.017361   0.000905  -0.052412
    13  C    5.536370   0.431645   0.335046   0.147964   0.041843  -0.198974
    14  H    0.431645   0.540135  -0.040835  -0.044363  -0.006523  -0.009747
    15  H    0.335046  -0.040835   0.615188  -0.058387   0.000543   0.012092
    16  O    0.147964  -0.044363  -0.058387   8.289305   0.230281   0.004863
    17  H    0.041843  -0.006523   0.000543   0.230281   0.429660   0.001335
    18  O   -0.198974  -0.009747   0.012092   0.004863   0.001335   7.975028
    19  H    0.005896  -0.000722  -0.000962   0.006441   0.001023   0.249807
    20  O    0.018344  -0.000560  -0.001775   0.026873   0.002044  -0.016781
    21  H    0.028317  -0.000963  -0.001096  -0.031548   0.003722  -0.005626
    22  O   -0.035404   0.000377  -0.006081   0.001184  -0.000097  -0.003729
    23  H   -0.000912   0.000061  -0.000021   0.000536  -0.000007   0.000175
    24  H   -0.000517  -0.000000   0.000019  -0.000017  -0.000000  -0.000004
              19         20         21         22         23         24
     1  O   -0.000016  -0.003877   0.000634  -0.001766  -0.000014   0.000157
     2  C    0.000925   0.068114  -0.008889   0.106969  -0.012388   0.096833
     3  H   -0.000026  -0.006719  -0.001572   0.000536  -0.000049   0.000098
     4  O    0.000058  -0.001177  -0.000461   0.005569  -0.003341   0.265019
     5  C    0.003851   0.025804  -0.034502  -0.192560   0.047032  -0.028773
     6  H   -0.000010  -0.008642   0.001450  -0.033551   0.003651  -0.000014
     7  C    0.017766  -0.291529   0.065209  -0.010026   0.040683  -0.063550
     8  H    0.000164   0.007421  -0.004536  -0.012244  -0.011973   0.001247
     9  C   -0.036845   0.339945   0.020541  -0.042929  -0.014835  -0.022979
    10  H   -0.000799  -0.051067   0.006202   0.004370  -0.000223   0.000611
    11  C    0.008311  -0.161505  -0.000362   0.057057  -0.002799   0.012746
    12  H    0.007102   0.014315  -0.002703  -0.002734  -0.000036  -0.000154
    13  C    0.005896   0.018344   0.028317  -0.035404  -0.000912  -0.000517
    14  H   -0.000722  -0.000560  -0.000963   0.000377   0.000061  -0.000000
    15  H   -0.000962  -0.001775  -0.001096  -0.006081  -0.000021   0.000019
    16  O    0.006441   0.026873  -0.031548   0.001184   0.000536  -0.000017
    17  H    0.001023   0.002044   0.003722  -0.000097  -0.000007  -0.000000
    18  O    0.249807  -0.016781  -0.005626  -0.003729   0.000175  -0.000004
    19  H    0.437631   0.043972  -0.008004  -0.000051   0.000007  -0.000009
    20  O    0.043972   8.023852   0.248208   0.024892  -0.001268  -0.000171
    21  H   -0.008004   0.248208   0.409156  -0.001663   0.000071   0.000099
    22  O   -0.000051   0.024892  -0.001663   8.189063   0.239066   0.034480
    23  H    0.000007  -0.001268   0.000071   0.239066   0.412367  -0.005408
    24  H   -0.000009  -0.000171   0.000099   0.034480  -0.005408   0.408549
 Mulliken charges:
               1
     1  O   -0.484047
     2  C    0.126216
     3  H    0.128588
     4  O   -0.167115
     5  C   -0.039703
     6  H    0.152417
     7  C   -0.428785
     8  H    0.187164
     9  C    0.071443
    10  H    0.173589
    11  C   -0.225371
    12  H    0.164120
    13  C   -0.137238
    14  H    0.167776
    15  H    0.130792
    16  O   -0.431366
    17  H    0.315520
    18  O   -0.278729
    19  H    0.264489
    20  O   -0.298711
    21  H    0.318316
    22  O   -0.320729
    23  H    0.309625
    24  H    0.301738
 Sum of Mulliken charges =  -0.00000
 Mulliken charges with hydrogens summed into heavy atoms:
               1
     1  O   -0.484047
     2  C    0.407221
     4  O    0.134623
     5  C   -0.039703
     7  C   -0.241621
     9  C    0.245032
    11  C   -0.061251
    13  C    0.161331
    16  O   -0.115846
    18  O   -0.014239
    20  O    0.019604
    22  O   -0.011103
 Electronic spatial extent (au):  <R**2>=           2384.7820
 Charge=              0.0000 electrons
 Dipole moment (field-independent basis, Debye):
    X=             -6.8394    Y=              3.4052    Z=             -6.4447  Tot=              9.9953
 Quadrupole moment (field-independent basis, Debye-Ang):
   XX=           -102.1440   YY=            -68.8776   ZZ=            -65.5583
   XY=             17.1182   XZ=              2.8812   YZ=              0.7205
 Traceless Quadrupole moment (field-independent basis, Debye-Ang):
   XX=            -23.2840   YY=              9.9823   ZZ=             13.3017
   XY=             17.1182   XZ=              2.8812   YZ=              0.7205
 Octapole moment (field-independent basis, Debye-Ang**2):
  XXX=           -146.4027  YYY=             10.1555  ZZZ=            -20.1198  XYY=            -16.5189
  XXY=             32.6851  XXZ=            -46.5915  XZZ=             -5.6586  YZZ=              1.2551
  YYZ=            -10.3836  XYZ=             -3.1083
 Hexadecapole moment (field-independent basis, Debye-Ang**3):
 XXXX=          -2603.6017 YYYY=           -482.8387 ZZZZ=           -340.4953 XXXY=            235.2102
 XXXZ=             63.6808 YYYX=             85.8498 YYYZ=              6.0522 ZZZX=             27.2372
 ZZZY=             -5.7152 XXYY=           -444.6435 XXZZ=           -377.4099 YYZZ=           -118.9065
 XXYZ=              7.5926 YYXZ=              5.3249 ZZXY=             46.2741
 N-N= 8.070510924294D+02 E-N=-3.227354821804D+03  KE= 6.847928798934D+02
 1\1\GINC-N2466\SP\RM06L\6-311+G(d,p)\C6H12O6\YKIM\09-Sep-2018\0\\# m06
 l/6-311+g(d,p) scf=(xqc,maxconventionalcycles=400) scrf=(smd,solvent=1
 ,4-dioxane) temperature=443.15\\Title Card Required\\0,1\O,0,1.544713,
 -1.096198,-0.747087\C,0,0.365227,-0.581496,-0.827665\H,0,-0.245335,-0.
 746072,-1.726298\O,0,0.248419,0.06388,1.433588\C,0,-0.345278,-0.018579
 ,0.266532\H,0,0.386508,0.68881,-0.784201\C,0,-1.744295,0.534727,0.1608
 6\H,0,-1.948908,0.831275,-0.875881\C,0,-2.760447,-0.538042,0.5844\H,0,
 -2.490738,-0.910415,1.579982\C,0,-4.197863,-0.001406,0.658911\H,0,-4.2
 66148,0.699969,1.49595\C,0,-4.62944,0.745817,-0.58941\H,0,-5.70626,0.9
 36453,-0.530965\H,0,-4.11734,1.717564,-0.645765\O,0,-4.312699,-0.05464
 3,-1.732857\H,0,-4.767893,0.293212,-2.504187\O,0,-5.06607,-1.076377,0.
 960686\H,0,-4.774148,-1.8295,0.431041\O,0,-2.666334,-1.654749,-0.28070
 2\H,0,-3.05106,-1.380259,-1.127901\O,0,-1.86613,1.625861,1.065551\H,0,
 -1.506738,2.420942,0.653116\H,0,-0.23546,0.722906,1.968162\\Version=ES
 64L-G16RevA.03\State=1-A\HF=-687.2268248\RMSD=3.046e-09\Dipole=-2.5875
 975,2.890197,-0.6445152\Quadrupole=-17.5461339,7.9708898,9.5752441,7.1
 978323,10.3783717,-1.4371845\PG=C01 [X(C6H12O6)]\\@


 WAR ES EIN GOTT DER DIESE ZEICHEN SCHRIEB?
          - LUDWIG BOLTZMANN, QUOTING GOETHE, ABOUT MAXWELL'S EQUATIONS.
 Job cpu time:       0 days  0 hours 25 minutes  3.8 seconds.
 Elapsed time:       0 days  0 hours  1 minutes  3.6 seconds.
 File lengths (MBytes):  RWF=    121 Int=      0 D2E=      0 Chk=      8 Scr=      1
 Normal termination of Gaussian 16 at Sun Sep  9 22:46:54 2018.
