 Entering Gaussian System, Link 0=g16
 Initial command:
 /nopt/nrel/apps/gaussian/G16.sandy/g16/l1.exe "/scratch/ykim/gaussianScratch.5606404/Gau-1037.inp" -scrdir="/scratch/ykim/gaussianScratch.5606404/"
 Default linda workers: n2470
 Default is to use  24 SMP processors on each worker.
 Entering Link 1 = /nopt/nrel/apps/gaussian/G16.sandy/g16/l1.exe PID=      1038.
  
 Copyright (c) 1988,1990,1992,1993,1995,1998,2003,2009,2016,
            Gaussian, Inc.  All Rights Reserved.
  
 This is part of the Gaussian(R) 16 program.  It is based on
 the Gaussian(R) 09 system (copyright 2009, Gaussian, Inc.),
 the Gaussian(R) 03 system (copyright 2003, Gaussian, Inc.),
 the Gaussian(R) 98 system (copyright 1998, Gaussian, Inc.),
 the Gaussian(R) 94 system (copyright 1995, Gaussian, Inc.),
 the Gaussian 92(TM) system (copyright 1992, Gaussian, Inc.),
 the Gaussian 90(TM) system (copyright 1990, Gaussian, Inc.),
 the Gaussian 88(TM) system (copyright 1988, Gaussian, Inc.),
 the Gaussian 86(TM) system (copyright 1986, Carnegie Mellon
 University), and the Gaussian 82(TM) system (copyright 1983,
 Carnegie Mellon University). Gaussian is a federally registered
 trademark of Gaussian, Inc.
  
 This software contains proprietary and confidential information,
 including trade secrets, belonging to Gaussian, Inc.
  
 This software is provided under written license and may be
 used, copied, transmitted, or stored only in accord with that
 written license.
  
 The following legend is applicable only to US Government
 contracts under FAR:
  
                    RESTRICTED RIGHTS LEGEND
  
 Use, reproduction and disclosure by the US Government is
 subject to restrictions as set forth in subparagraphs (a)
 and (c) of the Commercial Computer Software - Restricted
 Rights clause in FAR 52.227-19.
  
 Gaussian, Inc.
 340 Quinnipiac St., Bldg. 40, Wallingford CT 06492
  
  
 ---------------------------------------------------------------
 Warning -- This program may not be used in any manner that
 competes with the business of Gaussian, Inc. or will provide
 assistance to any competitor of Gaussian, Inc.  The licensee
 of this program is prohibited from giving any competitor of
 Gaussian, Inc. access to this program.  By using this program,
 the user acknowledges that Gaussian, Inc. is engaged in the
 business of creating and licensing software in the field of
 computational chemistry and represents and warrants to the
 licensee that it is not a competitor of Gaussian, Inc. and that
 it will not use this program in any manner prohibited above.
 ---------------------------------------------------------------
  

 Cite this work as:
 Gaussian 16, Revision A.03,
 M. J. Frisch, G. W. Trucks, H. B. Schlegel, G. E. Scuseria, 
 M. A. Robb, J. R. Cheeseman, G. Scalmani, V. Barone, 
 G. A. Petersson, H. Nakatsuji, X. Li, M. Caricato, A. V. Marenich, 
 J. Bloino, B. G. Janesko, R. Gomperts, B. Mennucci, H. P. Hratchian, 
 J. V. Ortiz, A. F. Izmaylov, J. L. Sonnenberg, D. Williams-Young, 
 F. Ding, F. Lipparini, F. Egidi, J. Goings, B. Peng, A. Petrone, 
 T. Henderson, D. Ranasinghe, V. G. Zakrzewski, J. Gao, N. Rega, 
 G. Zheng, W. Liang, M. Hada, M. Ehara, K. Toyota, R. Fukuda, 
 J. Hasegawa, M. Ishida, T. Nakajima, Y. Honda, O. Kitao, H. Nakai, 
 T. Vreven, K. Throssell, J. A. Montgomery, Jr., J. E. Peralta, 
 F. Ogliaro, M. J. Bearpark, J. J. Heyd, E. N. Brothers, K. N. Kudin, 
 V. N. Staroverov, T. A. Keith, R. Kobayashi, J. Normand, 
 K. Raghavachari, A. P. Rendell, J. C. Burant, S. S. Iyengar, 
 J. Tomasi, M. Cossi, J. M. Millam, M. Klene, C. Adamo, R. Cammi, 
 J. W. Ochterski, R. L. Martin, K. Morokuma, O. Farkas, 
 J. B. Foresman, and D. J. Fox, Gaussian, Inc., Wallingford CT, 2016.
 
 ******************************************
 Gaussian 16:  ES64L-G16RevA.03 25-Dec-2016
                 9-Sep-2018 
 ******************************************
 %chk=Fe3_TS_catal_6_M06L.chk
 %nprocshared=24
 Will use up to   24 processors via shared memory.
 %mem=24GB
 SetLPE:    new flags="-opt 'Tsnet.Node.lindarsharg: ssh'  -nodelist 'n2470.hpc.nrel.gov' -env GAUSS_MDEF=3221225472 -env GAUSS_EXEDIR="/nopt/nrel/apps/gaussian/G16.sandy/g16/bsd:/nopt/nrel/apps/gaussian/G16.sandy/g16/local:/nopt/nrel/apps/gaussian/G16.sandy/g16/extras:/nopt/nrel/apps/gaussian/G16.sandy/g16""
 Will use up to    1 processors via Linda.
 Default route: CacheSize=327680 MaxDisk=128GB
 ----------------------------------------------------------------------
 # m06l/6-311+g(d,p) scf=(xqc,maxconventionalcycles=400) scrf=(smd,solv
 ent=1,4-dioxane) temperature=443.15
 ----------------------------------------------------------------------
 1/4=327680,38=1,112=443150,172=1/1;
 2/4=327680,12=2,17=6,18=5,40=1/2;
 3/4=327680,5=4,6=6,7=111,11=2,25=1,30=1,70=32201,72=31,74=-53/1,2,3;
 4/4=327680/1;
 5/4=327680,5=2,8=3,13=1,38=5,53=31,85=400/2,8;
 6/4=327680,7=2,8=2,9=2,10=2,28=1/1;
 99/4=327680,5=1,9=1/99;
 -------------------
 Title Card Required
 -------------------
 Symbolic Z-matrix:
 Charge =  0 Multiplicity = 6
 Fe                    2.80891   0.08978  -0.12229 
 Cl                    4.45659   1.47604  -0.53429 
 Cl                    2.1861    0.10971   2.03775 
 Cl                    3.18674  -1.93209  -0.88314 
 
                          Input orientation:                          
 ---------------------------------------------------------------------
 Center     Atomic      Atomic             Coordinates (Angstroms)
 Number     Number       Type             X           Y           Z
 ---------------------------------------------------------------------
      1         26           0        2.808905    0.089781   -0.122288
      2         17           0        4.456586    1.476040   -0.534285
      3         17           0        2.186097    0.109713    2.037751
      4         17           0        3.186735   -1.932088   -0.883139
 ---------------------------------------------------------------------
                    Distance matrix (angstroms):
                    1          2          3          4
     1  Fe   0.000000
     2  Cl   2.192329   0.000000
     3  Cl   2.248123   3.692877   0.000000
     4  Cl   2.193081   3.653705   3.701598   0.000000
 Stoichiometry    Cl3Fe(6)
 Framework group  C1[X(Cl3Fe)]
 Deg. of freedom     6
 Full point group                 C1      NOp   1
 Largest Abelian subgroup         C1      NOp   1
 Largest concise Abelian subgroup C1      NOp   1
                         Standard orientation:                         
 ---------------------------------------------------------------------
 Center     Atomic      Atomic             Coordinates (Angstroms)
 Number     Number       Type             X           Y           Z
 ---------------------------------------------------------------------
      1         26           0       -0.015277   -0.000406    0.402060
      2         17           0       -0.899543    1.911073   -0.206732
      3         17           0        2.142947   -0.181904   -0.200587
      4         17           0       -1.220039   -1.728548   -0.207597
 ---------------------------------------------------------------------
 Rotational constants (GHZ):           2.0477480           1.9866371           1.0655312
 Standard basis: 6-311+G(d,p) (5D, 7F)
 There are   158 symmetry adapted cartesian basis functions of A   symmetry.
 There are   148 symmetry adapted basis functions of A   symmetry.
   148 basis functions,   253 primitive gaussians,   158 cartesian basis functions
    41 alpha electrons       36 beta electrons
       nuclear repulsion energy       441.9658649948 Hartrees.
 NAtoms=    4 NActive=    4 NUniq=    4 SFac= 1.00D+00 NAtFMM=   60 NAOKFM=F Big=F
 Integral buffers will be    131072 words long.
 Raffenetti 2 integral format.
 Two-electron integral symmetry is turned on.
 ------------------------------------------------------------------------------
 Polarizable Continuum Model (PCM)
 =================================
 Model                : PCM.
 Atomic radii         : SMD-Coulomb.
 Polarization charges : Total charges.
 Charge compensation  : None.
 Solution method      : On-the-fly selection.
 Cavity type          : VdW (van der Waals Surface) (Alpha=1.000).
 Cavity algorithm     : GePol (No added spheres)
                        Default sphere list used, NSphG=    4.
                        Lebedev-Laikov grids with approx.  5.0 points / Ang**2.
                        Smoothing algorithm: York/Karplus (Gamma=1.0000).
                        Polarization charges: spherical gaussians, with
                                              point-specific exponents (IZeta= 3).
                        Self-potential: point-specific (ISelfS= 7).
                        Self-field    : sphere-specific E.n sum rule (ISelfD= 2).
 Solvent              : 1,4-Dioxane, Eps=   2.209900 Eps(inf)=   2.023222
 ------------------------------------------------------------------------------
 Spheres list:
 ISph  on   Nord     Re0    Alpha      Xe            Ye            Ze
    1  Fe      1    1.4560  1.000     -0.015277     -0.000406      0.402060
    2  Cl      2    2.3800  1.000     -0.899543      1.911073     -0.206732
    3  Cl      3    2.3800  1.000      2.142947     -0.181904     -0.200587
    4  Cl      4    2.3800  1.000     -1.220039     -1.728548     -0.207597
 ------------------------------------------------------------------------------
 ------------------------------------------------------------------------------
 Atomic radii for non-electrostatic terms: SMD-CDS.
 ------------------------------------------------------------------------------
 Nuclear repulsion after PCM non-electrostatic terms =      441.9621756063 Hartrees.
 One-electron integrals computed using PRISM.
 NBasis=   148 RedAO= T EigKep=  6.10D-04  NBF=   148
 NBsUse=   148 1.00D-06 EigRej= -1.00D+00 NBFU=   148
 ExpMin= 1.26D-02 ExpMax= 2.58D+05 ExpMxC= 8.89D+03 IAcc=3 IRadAn=         5 AccDes= 0.00D+00
 Harris functional with IExCor= 1009 and IRadAn=       5 diagonalized for initial guess.
 HarFok:  IExCor= 1009 AccDes= 0.00D+00 IRadAn=         5 IDoV= 1 UseB2=F ITyADJ=14
 ICtDFT=  3500011 ScaDFX=  1.000000  1.000000  1.000000  1.000000
 FoFCou: FMM=F IPFlag=           0 FMFlag=      100000 FMFlg1=           0
         NFxFlg=           0 DoJE=T BraDBF=F KetDBF=T FulRan=T
         wScrn=  0.000000 ICntrl=       500 IOpCl=  0 I1Cent=   200000004 NGrid=           0
         NMat0=    1 NMatS0=      1 NMatT0=    0 NMatD0=    1 NMtDS0=    0 NMtDT0=    0
 Petite list used in FoFCou.
 Initial guess <Sx>= 0.0000 <Sy>= 0.0000 <Sz>= 2.5000 <S**2>= 8.7500 S= 2.5000
 Keep J ints in memory in canonical form, NReq=84414002.
 Requested convergence on RMS density matrix=1.00D-08 within 400 cycles.
 Requested convergence on MAX density matrix=1.00D-06.
 Requested convergence on             energy=1.00D-06.
 No special actions if energy rises.
 Inv3:  Mode=1 IEnd=     3409068.
 Iteration    1 A*A^-1 deviation from unit magnitude is 5.11D-15 for   1056.
 Iteration    1 A*A^-1 deviation from orthogonality  is 1.22D-15 for    421    221.
 Iteration    1 A^-1*A deviation from unit magnitude is 4.88D-15 for   1056.
 Iteration    1 A^-1*A deviation from orthogonality  is 8.05D-16 for    840    762.
 EnCoef did     2 forward-backward iterations
 Error on total polarization charges =  0.01005
 SCF Done:  E(UM06L) =  -2644.40996964     A.U. after   15 cycles
            NFock= 15  Conv=0.79D-08     -V/T= 2.0010
 <Sx>= 0.0000 <Sy>= 0.0000 <Sz>= 2.5000 <S**2>= 8.7612 S= 2.5019
 <L.S>= 0.000000000000E+00
 SMD-CDS (non-electrostatic) energy       (kcal/mol) =      -2.32
 (included in total energy above)
 Annihilation of the first spin contaminant:
 S**2 before annihilation     8.7612,   after     8.7500
 QCSCF skips out because SCF is already converged.

 **********************************************************************

            Population analysis using the SCF density.

 **********************************************************************

 Orbital symmetries:
 Alpha Orbitals:
       Occupied  (A) (A) (A) (A) (A) (A) (A) (A) (A) (A) (A) (A)
                 (A) (A) (A) (A) (A) (A) (A) (A) (A) (A) (A) (A)
                 (A) (A) (A) (A) (A) (A) (A) (A) (A) (A) (A) (A)
                 (A) (A) (A) (A) (A)
       Virtual   (A) (A) (A) (A) (A) (A) (A) (A) (A) (A) (A) (A)
                 (A) (A) (A) (A) (A) (A) (A) (A) (A) (A) (A) (A)
                 (A) (A) (A) (A) (A) (A) (A) (A) (A) (A) (A) (A)
                 (A) (A) (A) (A) (A) (A) (A) (A) (A) (A) (A) (A)
                 (A) (A) (A) (A) (A) (A) (A) (A) (A) (A) (A) (A)
                 (A) (A) (A) (A) (A) (A) (A) (A) (A) (A) (A) (A)
                 (A) (A) (A) (A) (A) (A) (A) (A) (A) (A) (A) (A)
                 (A) (A) (A) (A) (A) (A) (A) (A) (A) (A) (A) (A)
                 (A) (A) (A) (A) (A) (A) (A) (A) (A) (A) (A)
 Beta  Orbitals:
       Occupied  (A) (A) (A) (A) (A) (A) (A) (A) (A) (A) (A) (A)
                 (A) (A) (A) (A) (A) (A) (A) (A) (A) (A) (A) (A)
                 (A) (A) (A) (A) (A) (A) (A) (A) (A) (A) (A) (A)
       Virtual   (A) (A) (A) (A) (A) (A) (A) (A) (A) (A) (A) (A)
                 (A) (A) (A) (A) (A) (A) (A) (A) (A) (A) (A) (A)
                 (A) (A) (A) (A) (A) (A) (A) (A) (A) (A) (A) (A)
                 (A) (A) (A) (A) (A) (A) (A) (A) (A) (A) (A) (A)
                 (A) (A) (A) (A) (A) (A) (A) (A) (A) (A) (A) (A)
                 (A) (A) (A) (A) (A) (A) (A) (A) (A) (A) (A) (A)
                 (A) (A) (A) (A) (A) (A) (A) (A) (A) (A) (A) (A)
                 (A) (A) (A) (A) (A) (A) (A) (A) (A) (A) (A) (A)
                 (A) (A) (A) (A) (A) (A) (A) (A) (A) (A) (A) (A)
                 (A) (A) (A) (A)
 The electronic state is 6-A.
 Alpha  occ. eigenvalues -- -255.69233-101.19465-101.19463-101.18906 -30.13109
 Alpha  occ. eigenvalues --  -25.92195 -25.91495 -25.91471  -9.41292  -9.41289
 Alpha  occ. eigenvalues --   -9.40694  -7.11915  -7.11911  -7.11638  -7.11634
 Alpha  occ. eigenvalues --   -7.11523  -7.11519  -7.11328  -7.11037  -7.10918
 Alpha  occ. eigenvalues --   -3.69496  -2.44621  -2.43225  -2.43217  -0.79530
 Alpha  occ. eigenvalues --   -0.78940  -0.78263  -0.44954  -0.44950  -0.44663
 Alpha  occ. eigenvalues --   -0.44172  -0.44151  -0.38155  -0.33747  -0.33623
 Alpha  occ. eigenvalues --   -0.32197  -0.30628  -0.30327  -0.30106  -0.28978
 Alpha  occ. eigenvalues --   -0.28865
 Alpha virt. eigenvalues --   -0.06947   0.00186   0.03553   0.03588   0.03702
 Alpha virt. eigenvalues --    0.08243   0.08283   0.08372   0.08856   0.08901
 Alpha virt. eigenvalues --    0.09867   0.10948   0.10955   0.11742   0.12593
 Alpha virt. eigenvalues --    0.13972   0.16138   0.16200   0.17995   0.18176
 Alpha virt. eigenvalues --    0.19745   0.24052   0.24116   0.32212   0.32579
 Alpha virt. eigenvalues --    0.32592   0.41394   0.42719   0.42958   0.44488
 Alpha virt. eigenvalues --    0.46650   0.46697   0.49526   0.49662   0.50229
 Alpha virt. eigenvalues --    0.81301   0.81350   0.81547   0.82208   0.82424
 Alpha virt. eigenvalues --    0.82825   0.82920   0.85959   0.85988   0.87169
 Alpha virt. eigenvalues --    0.88761   0.88990   0.91297   0.98478   0.98540
 Alpha virt. eigenvalues --    1.09683   1.10104   1.12038   1.26794   1.26814
 Alpha virt. eigenvalues --    1.36913   1.50546   1.51992   1.53150   1.63775
 Alpha virt. eigenvalues --    1.65064   2.27008   2.32851   2.34114   2.34245
 Alpha virt. eigenvalues --    2.35246   2.35770   2.36144   2.39248   2.39509
 Alpha virt. eigenvalues --    2.67325   2.68663   2.68996   2.70959   2.73069
 Alpha virt. eigenvalues --    2.86056   2.88058   3.05602   5.59976   5.59999
 Alpha virt. eigenvalues --    5.64641   5.73116   5.74160   7.88589   8.00848
 Alpha virt. eigenvalues --    8.01256   9.70089   9.70736   9.70855  25.83008
 Alpha virt. eigenvalues --   26.00363  26.03249  26.03424  26.08302  26.08384
 Alpha virt. eigenvalues --   26.14406  26.35309  26.46090  26.47548  33.99311
 Alpha virt. eigenvalues --   34.10168  34.10558 147.71457 216.37065 216.37928
 Alpha virt. eigenvalues --  216.38074 778.67978
  Beta  occ. eigenvalues -- -255.69249-101.19216-101.19214-101.18664 -30.02228
  Beta  occ. eigenvalues --  -25.84199 -25.83778 -25.83769  -9.41105  -9.41102
  Beta  occ. eigenvalues --   -9.40513  -7.11585  -7.11583  -7.11264  -7.11261
  Beta  occ. eigenvalues --   -7.11187  -7.11184  -7.10999  -7.10677  -7.10600
  Beta  occ. eigenvalues --   -3.46521  -2.21434  -2.20838  -2.20804  -0.78133
  Beta  occ. eigenvalues --   -0.77477  -0.76863  -0.37984  -0.35916  -0.35340
  Beta  occ. eigenvalues --   -0.32765  -0.32456  -0.31916  -0.30846  -0.30532
  Beta  occ. eigenvalues --   -0.28814
  Beta virt. eigenvalues --   -0.23577  -0.21573  -0.21513  -0.18758  -0.18662
  Beta virt. eigenvalues --   -0.08796   0.00084   0.03943   0.03953   0.04851
  Beta virt. eigenvalues --    0.08532   0.08582   0.08635   0.09029   0.09057
  Beta virt. eigenvalues --    0.10367   0.11514   0.11540   0.12618   0.12826
  Beta virt. eigenvalues --    0.15756   0.16670   0.16725   0.19643   0.19875
  Beta virt. eigenvalues --    0.20227   0.24729   0.24758   0.26893   0.33324
  Beta virt. eigenvalues --    0.33596   0.42293   0.43144   0.43396   0.44705
  Beta virt. eigenvalues --    0.47247   0.47279   0.50513   0.50646   0.50986
  Beta virt. eigenvalues --    0.83142   0.83411   0.83576   0.84252   0.84426
  Beta virt. eigenvalues --    0.84777   0.84850   0.88104   0.88436   0.89550
  Beta virt. eigenvalues --    0.90288   0.90548   0.93352   0.99728   0.99795
  Beta virt. eigenvalues --    1.12481   1.12846   1.14832   1.34237   1.34264
  Beta virt. eigenvalues --    1.41450   1.55737   1.57093   1.59282   1.70231
  Beta virt. eigenvalues --    1.71508   2.30578   2.35766   2.36741   2.36816
  Beta virt. eigenvalues --    2.38164   2.38610   2.38853   2.43793   2.44135
  Beta virt. eigenvalues --    2.79112   2.79673   2.79879   2.82008   2.85530
  Beta virt. eigenvalues --    2.95390   2.97262   3.15835   5.78479   5.78511
  Beta virt. eigenvalues --    5.81258   5.90987   5.91980   8.10336   8.23258
  Beta virt. eigenvalues --    8.23662   9.69846   9.70487   9.70607  25.99065
  Beta virt. eigenvalues --   26.00890  26.02456  26.02592  26.07202  26.07318
  Beta virt. eigenvalues --   26.13617  26.34466  26.45225  26.46653  34.09079
  Beta virt. eigenvalues --   34.19928  34.20305 147.76487 216.37235 216.38097
  Beta virt. eigenvalues --  216.38246 778.68937
          Condensed to atoms (all electrons):
               1          2          3          4
     1  Fe  24.618433   0.288488   0.286619   0.288745
     2  Cl   0.288488  16.853027   0.011181   0.009183
     3  Cl   0.286619   0.011181  16.884064   0.011715
     4  Cl   0.288745   0.009183   0.011715  16.852617
          Atomic-Atomic Spin Densities.
               1          2          3          4
     1  Fe   4.183788  -0.074976  -0.069227  -0.074569
     2  Cl  -0.074976   0.445061  -0.009774  -0.011129
     3  Cl  -0.069227  -0.009774   0.426315  -0.009670
     4  Cl  -0.074569  -0.011129  -0.009670   0.443528
 Mulliken charges and spin densities:
               1          2
     1  Fe   0.517716   3.965014
     2  Cl  -0.161878   0.349182
     3  Cl  -0.193579   0.337643
     4  Cl  -0.162259   0.348160
 Sum of Mulliken charges =  -0.00000   5.00000
 Mulliken charges and spin densities with hydrogens summed into heavy atoms:
               1          2
     1  Fe   0.517716   3.965014
     2  Cl  -0.161878   0.349182
     3  Cl  -0.193579   0.337643
     4  Cl  -0.162259   0.348160
 Electronic spatial extent (au):  <R**2>=            969.6253
 Charge=             -0.0000 electrons
 Dipole moment (field-independent basis, Debye):
    X=             -0.3351    Y=              0.0209    Z=              3.0342  Tot=              3.0527
 Quadrupole moment (field-independent basis, Debye-Ang):
   XX=            -59.0036   YY=            -58.1995   ZZ=            -48.9806
   XY=              0.0501   XZ=              0.0090   YZ=             -0.0094
 Traceless Quadrupole moment (field-independent basis, Debye-Ang):
   XX=             -3.6091   YY=             -2.8049   ZZ=              6.4140
   XY=              0.0501   XZ=              0.0090   YZ=             -0.0094
 Octapole moment (field-independent basis, Debye-Ang**2):
  XXX=             -5.3729  YYY=             -0.6313  ZZZ=             12.5019  XYY=              2.3845
  XXY=              0.8941  XXZ=              2.3417  XZZ=             -0.4639  YZZ=              0.0250
  YYZ=              2.2161  XYZ=             -0.0163
 Hexadecapole moment (field-independent basis, Debye-Ang**3):
 XXXX=           -599.4603 YYYY=           -576.1606 ZZZZ=            -73.0518 XXXY=              0.3683
 XXXZ=             -2.1272 YYYX=              0.1786 YYYZ=             -0.6321 ZZZX=             -0.0342
 ZZZY=             -0.0238 XXYY=           -195.6847 XXZZ=           -111.5612 YYZZ=           -108.0769
 XXYZ=              0.5841 YYXZ=              2.2856 ZZXY=              0.0575
 N-N= 4.419621756063D+02 E-N=-7.173379001817D+03  KE= 2.641646637518D+03
                          Isotropic Fermi Contact Couplings
        Atom                 a.u.       MegaHertz       Gauss      10(-4) cm-1
     1  Fe(57)            -0.49631     -14.39705      -5.13723      -4.80234
     2  Cl(35)             0.12291      10.77838       3.84599       3.59528
     3  Cl(35)             0.12066      10.58093       3.77554       3.52942
     4  Cl(35)             0.12245      10.73752       3.83141       3.58165
 --------------------------------------------------------
       Center         ----  Spin Dipole Couplings  ----
                      3XX-RR        3YY-RR        3ZZ-RR
 --------------------------------------------------------
     1   Atom        0.026199      0.053685     -0.079884
     2   Atom       -0.099963      0.123746     -0.023782
     3   Atom        0.209614     -0.181367     -0.028247
     4   Atom       -0.054285      0.078167     -0.023882
 --------------------------------------------------------
                        XY            XZ            YZ
 --------------------------------------------------------
     1   Atom        0.001520      0.003578     -0.000228
     2   Atom       -0.114017     -0.096411      0.178157
     3   Atom       -0.033703      0.192234     -0.015660
     4   Atom        0.144239     -0.126945     -0.159430
 --------------------------------------------------------


 ---------------------------------------------------------------------------------
              Anisotropic Spin Dipole Couplings in Principal Axis System
 ---------------------------------------------------------------------------------

       Atom             a.u.   MegaHertz   Gauss  10(-4) cm-1        Axes

              Baa    -0.0800    -1.385    -0.494    -0.462 -0.0337  0.0021  0.9994
     1 Fe(57) Bbb     0.0262     0.454     0.162     0.152  0.9979 -0.0550  0.0338
              Bcc     0.0538     0.931     0.332     0.311  0.0550  0.9985 -0.0002
 
              Baa    -0.1660    -8.688    -3.100    -2.898  0.7766 -0.0788  0.6251
     2 Cl(35) Bbb    -0.1322    -6.918    -2.468    -2.308  0.5241  0.6314 -0.5716
              Bcc     0.2982    15.606     5.569     5.206 -0.3496  0.7715  0.5316
 
              Baa    -0.1843    -9.644    -3.441    -3.217  0.0914  0.9957 -0.0126
     3 Cl(35) Bbb    -0.1352    -7.077    -2.525    -2.361 -0.4820  0.0553  0.8744
              Bcc     0.3195    16.721     5.966     5.577  0.8714 -0.0738  0.4850
 
              Baa    -0.1670    -8.740    -3.119    -2.916  0.7652 -0.0320  0.6430
     4 Cl(35) Bbb    -0.1315    -6.883    -2.456    -2.296 -0.4320  0.7150  0.5496
              Bcc     0.2985    15.624     5.575     5.212  0.4774  0.6983 -0.5333
 

 ---------------------------------------------------------------------------------

 1\1\GINC-N2470\SP\UM06L\6-311+G(d,p)\Cl3Fe1(6)\YKIM\09-Sep-2018\0\\# m
 06l/6-311+g(d,p) scf=(xqc,maxconventionalcycles=400) scrf=(smd,solvent
 =1,4-dioxane) temperature=443.15\\Title Card Required\\0,6\Fe,0,2.8089
 05,0.089781,-0.122288\Cl,0,4.456586,1.47604,-0.534285\Cl,0,2.186097,0.
 109713,2.037751\Cl,0,3.186735,-1.932088,-0.883139\\Version=ES64L-G16Re
 vA.03\State=6-A\HF=-2644.4099696\S2=8.761194\S2-1=0.\S2A=8.750039\RMSD
 =7.928e-09\Dipole=-0.8746611,0.3963973,-0.7213147\Quadrupole=2.0300109
 ,-1.2760835,-0.7539274,-1.8278979,3.0063097,-1.2679385\PG=C01 [X(Cl3Fe
 1)]\\@


 I FIND THAT THE THREE TRULY GREAT TIMES FOR THINKING THOUGHTS
 ARE WHEN I AM STANDING IN THE SHOWER, SITTING ON THE JOHN, OR WALKING.

                                    -- COLIN FLETCHER
 Job cpu time:       0 days  0 hours  5 minutes 13.5 seconds.
 Elapsed time:       0 days  0 hours  0 minutes 14.7 seconds.
 File lengths (MBytes):  RWF=     39 Int=      0 D2E=      0 Chk=      3 Scr=      1
 Normal termination of Gaussian 16 at Sun Sep  9 22:47:50 2018.
