 Entering Gaussian System, Link 0=g16
 Initial command:
 /nopt/nrel/apps/gaussian/G16.sandy/g16/l1.exe "/scratch/ykim/gaussianScratch.5606406/Gau-13011.inp" -scrdir="/scratch/ykim/gaussianScratch.5606406/"
 Default linda workers: n2470
 Default is to use  24 SMP processors on each worker.
 Entering Link 1 = /nopt/nrel/apps/gaussian/G16.sandy/g16/l1.exe PID=     13012.
  
 Copyright (c) 1988,1990,1992,1993,1995,1998,2003,2009,2016,
            Gaussian, Inc.  All Rights Reserved.
  
 This is part of the Gaussian(R) 16 program.  It is based on
 the Gaussian(R) 09 system (copyright 2009, Gaussian, Inc.),
 the Gaussian(R) 03 system (copyright 2003, Gaussian, Inc.),
 the Gaussian(R) 98 system (copyright 1998, Gaussian, Inc.),
 the Gaussian(R) 94 system (copyright 1995, Gaussian, Inc.),
 the Gaussian 92(TM) system (copyright 1992, Gaussian, Inc.),
 the Gaussian 90(TM) system (copyright 1990, Gaussian, Inc.),
 the Gaussian 88(TM) system (copyright 1988, Gaussian, Inc.),
 the Gaussian 86(TM) system (copyright 1986, Carnegie Mellon
 University), and the Gaussian 82(TM) system (copyright 1983,
 Carnegie Mellon University). Gaussian is a federally registered
 trademark of Gaussian, Inc.
  
 This software contains proprietary and confidential information,
 including trade secrets, belonging to Gaussian, Inc.
  
 This software is provided under written license and may be
 used, copied, transmitted, or stored only in accord with that
 written license.
  
 The following legend is applicable only to US Government
 contracts under FAR:
  
                    RESTRICTED RIGHTS LEGEND
  
 Use, reproduction and disclosure by the US Government is
 subject to restrictions as set forth in subparagraphs (a)
 and (c) of the Commercial Computer Software - Restricted
 Rights clause in FAR 52.227-19.
  
 Gaussian, Inc.
 340 Quinnipiac St., Bldg. 40, Wallingford CT 06492
  
  
 ---------------------------------------------------------------
 Warning -- This program may not be used in any manner that
 competes with the business of Gaussian, Inc. or will provide
 assistance to any competitor of Gaussian, Inc.  The licensee
 of this program is prohibited from giving any competitor of
 Gaussian, Inc. access to this program.  By using this program,
 the user acknowledges that Gaussian, Inc. is engaged in the
 business of creating and licensing software in the field of
 computational chemistry and represents and warrants to the
 licensee that it is not a competitor of Gaussian, Inc. and that
 it will not use this program in any manner prohibited above.
 ---------------------------------------------------------------
  

 Cite this work as:
 Gaussian 16, Revision A.03,
 M. J. Frisch, G. W. Trucks, H. B. Schlegel, G. E. Scuseria, 
 M. A. Robb, J. R. Cheeseman, G. Scalmani, V. Barone, 
 G. A. Petersson, H. Nakatsuji, X. Li, M. Caricato, A. V. Marenich, 
 J. Bloino, B. G. Janesko, R. Gomperts, B. Mennucci, H. P. Hratchian, 
 J. V. Ortiz, A. F. Izmaylov, J. L. Sonnenberg, D. Williams-Young, 
 F. Ding, F. Lipparini, F. Egidi, J. Goings, B. Peng, A. Petrone, 
 T. Henderson, D. Ranasinghe, V. G. Zakrzewski, J. Gao, N. Rega, 
 G. Zheng, W. Liang, M. Hada, M. Ehara, K. Toyota, R. Fukuda, 
 J. Hasegawa, M. Ishida, T. Nakajima, Y. Honda, O. Kitao, H. Nakai, 
 T. Vreven, K. Throssell, J. A. Montgomery, Jr., J. E. Peralta, 
 F. Ogliaro, M. J. Bearpark, J. J. Heyd, E. N. Brothers, K. N. Kudin, 
 V. N. Staroverov, T. A. Keith, R. Kobayashi, J. Normand, 
 K. Raghavachari, A. P. Rendell, J. C. Burant, S. S. Iyengar, 
 J. Tomasi, M. Cossi, J. M. Millam, M. Klene, C. Adamo, R. Cammi, 
 J. W. Ochterski, R. L. Martin, K. Morokuma, O. Farkas, 
 J. B. Foresman, and D. J. Fox, Gaussian, Inc., Wallingford CT, 2016.
 
 ******************************************
 Gaussian 16:  ES64L-G16RevA.03 25-Dec-2016
                 9-Sep-2018 
 ******************************************
 %chk=Fe3_TS_sugar_6_M06L.chk
 %nprocshared=24
 Will use up to   24 processors via shared memory.
 %mem=24GB
 SetLPE:    new flags="-opt 'Tsnet.Node.lindarsharg: ssh'  -nodelist 'n2470.hpc.nrel.gov' -env GAUSS_MDEF=3221225472 -env GAUSS_EXEDIR="/nopt/nrel/apps/gaussian/G16.sandy/g16/bsd:/nopt/nrel/apps/gaussian/G16.sandy/g16/local:/nopt/nrel/apps/gaussian/G16.sandy/g16/extras:/nopt/nrel/apps/gaussian/G16.sandy/g16""
 Will use up to    1 processors via Linda.
 Default route: CacheSize=327680 MaxDisk=128GB
 ----------------------------------------------------------------------
 # m06l/6-311+g(d,p) scf=(xqc,maxconventionalcycles=400) scrf=(smd,solv
 ent=1,4-dioxane) temperature=443.15
 ----------------------------------------------------------------------
 1/4=327680,38=1,112=443150,172=1/1;
 2/4=327680,12=2,17=6,18=5,40=1/2;
 3/4=327680,5=4,6=6,7=111,11=2,25=1,30=1,70=32201,72=31,74=-53/1,2,3;
 4/4=327680/1;
 5/4=327680,5=2,8=3,13=1,38=5,53=31,85=400/2,8;
 6/4=327680,7=2,8=2,9=2,10=2,28=1/1;
 99/4=327680,5=1,9=1/99;
 -------------------
 Title Card Required
 -------------------
 Symbolic Z-matrix:
 Charge =  0 Multiplicity = 1
 O                     1.20896   0.91269  -0.86667 
 C                     0.02462   0.95308  -0.36619 
 H                    -0.57325   1.86729  -0.46743 
 O                    -0.06747  -1.33601   0.14215 
 C                    -0.67452  -0.1725    0.14076 
 H                     0.01509   0.80037   0.92426 
 C                    -2.09856  -0.12444   0.63634 
 H                    -2.33318   0.88487   0.99761 
 C                    -3.05244  -0.48081  -0.5163 
 H                    -2.76476  -1.45725  -0.92391 
 C                    -4.51851  -0.57339  -0.06575 
 H                    -4.6304   -1.4477    0.5826 
 C                    -4.9842    0.63612   0.72401 
 H                    -6.07097   0.5807    0.84546 
 H                    -4.53328   0.63312   1.72763 
 O                    -4.60822   1.81789   0.00945 
 H                    -5.08702   2.57298   0.3614 
 O                    -5.32703  -0.80788  -1.20161 
 H                    -4.99252  -0.24064  -1.90813 
 O                    -2.88996   0.44227  -1.57667 
 H                    -3.29453   1.27389  -1.28311 
 O                    -2.25616  -1.11173   1.64569 
 H                    -1.97537  -0.74982   2.49458 
 H                    -0.55072  -1.93059   0.74715 
 
                          Input orientation:                          
 ---------------------------------------------------------------------
 Center     Atomic      Atomic             Coordinates (Angstroms)
 Number     Number       Type             X           Y           Z
 ---------------------------------------------------------------------
      1          8           0        1.208958    0.912690   -0.866674
      2          6           0        0.024615    0.953082   -0.366186
      3          1           0       -0.573248    1.867291   -0.467427
      4          8           0       -0.067473   -1.336006    0.142146
      5          6           0       -0.674524   -0.172500    0.140760
      6          1           0        0.015088    0.800367    0.924264
      7          6           0       -2.098560   -0.124436    0.636344
      8          1           0       -2.333180    0.884867    0.997610
      9          6           0       -3.052437   -0.480810   -0.516296
     10          1           0       -2.764761   -1.457251   -0.923909
     11          6           0       -4.518509   -0.573393   -0.065754
     12          1           0       -4.630399   -1.447704    0.582596
     13          6           0       -4.984203    0.636116    0.724009
     14          1           0       -6.070969    0.580699    0.845462
     15          1           0       -4.533276    0.633116    1.727628
     16          8           0       -4.608221    1.817888    0.009445
     17          1           0       -5.087023    2.572984    0.361396
     18          8           0       -5.327027   -0.807882   -1.201613
     19          1           0       -4.992524   -0.240642   -1.908129
     20          8           0       -2.889959    0.442268   -1.576666
     21          1           0       -3.294533    1.273886   -1.283111
     22          8           0       -2.256156   -1.111731    1.645686
     23          1           0       -1.975366   -0.749815    2.494575
     24          1           0       -0.550716   -1.930587    0.747145
 ---------------------------------------------------------------------
                    Distance matrix (angstroms):
                    1          2          3          4          5
     1  O    0.000000
     2  C    1.286386   0.000000
     3  H    2.060806   1.097027   0.000000
     4  O    2.775541   2.346658   3.299773   0.000000
     5  C    2.395843   1.418705   2.130938   1.312349   0.000000
     6  H    2.155319   1.299490   1.849668   2.276536   1.426854
     7  C    3.778144   2.583405   2.740778   2.416081   1.508573
     8  H    4.002883   2.724663   2.491757   3.285959   2.145543
     9  C    4.497121   3.398062   3.415018   3.174101   2.486212
    10  H    4.627131   3.728455   4.007953   2.902850   2.674546
    11  C    5.971080   4.802120   4.656540   4.520677   3.870347
    12  H    6.462966   5.322886   5.343427   4.585495   4.179750
    13  C    6.400157   5.135879   4.732001   5.329359   4.423502
    14  H    7.485918   6.225986   5.796890   6.341165   5.494136
    15  H    6.307283   5.026013   4.692896   5.131724   4.249369
    16  O    5.952020   4.727807   4.063355   5.530194   4.410540
    17  H    6.626018   5.411312   4.643179   6.365859   5.201587
    18  O    6.766953   5.695525   5.503998   5.454128   4.883796
    19  H    6.393214   5.382773   5.103823   5.446061   4.779928
    20  O    4.186467   3.197020   2.937389   3.752732   2.869781
    21  H    4.537104   3.458383   2.902217   4.388258   3.314195
    22  O    4.734686   3.676003   4.021442   2.664820   2.376661
    23  H    4.919536   3.883779   4.193881   3.085060   2.750623
    24  H    3.712828   3.144210   3.987427   0.976255   1.863840
                    6          7          8          9         10
     6  H    0.000000
     7  C    2.325009   0.000000
     8  H    2.350932   1.097384   0.000000
     9  C    3.623029   1.538006   2.162017   0.000000
    10  H    4.029906   2.157454   3.060068   1.096514   0.000000
    11  C    4.839510   2.559425   2.834242   1.536531   2.143191
    12  H    5.172147   2.857295   3.300051   2.152304   2.397969
    13  C    5.005996   2.985475   2.676688   2.552959   3.467527
    14  H    6.090530   4.039923   3.753230   3.477459   4.267895
    15  H    4.621794   2.773559   2.331679   2.910139   3.811552
    16  O    4.821538   3.234814   2.650058   2.825045   3.872471
    17  H    5.430518   4.035168   3.292136   3.773002   4.825734
    18  O    5.970261   3.777325   4.082291   2.397998   2.657820
    19  H    5.846565   3.855240   4.096608   2.399754   2.722454
    20  O    3.849959   2.417618   2.670729   1.415223   2.012446
    21  H    4.006285   2.658940   2.505439   1.930175   2.805137
    22  O    3.055342   1.420690   2.100557   2.388784   2.642136
    23  H    2.971674   1.964510   2.245244   3.209017   3.579056
    24  H    2.794569   2.381235   3.341660   3.155431   2.813976
                   11         12         13         14         15
    11  C    0.000000
    12  H    1.094211   0.000000
    13  C    1.517731   2.118367   0.000000
    14  H    2.138311   2.501751   1.094935   0.000000
    15  H    2.161504   2.377045   1.100271   1.773546   0.000000
    16  O    2.394145   3.315582   1.431275   2.090261   2.088410
    17  H    3.225733   4.052575   1.973200   2.274130   2.436455
    18  O    1.413811   2.019422   2.431189   2.583045   3.359608
    19  H    1.931258   2.791388   2.774333   3.069187   3.767372
    20  O    2.442662   3.356119   3.117137   4.000586   3.695304
    21  H    2.528342   3.559839   2.700049   3.566501   3.318075
    22  O    2.887399   2.622988   3.368486   4.249409   2.869927
    23  H    3.613030   3.345432   3.756169   4.611269   3.007259
    24  H    4.271553   4.111455   5.122920   6.065428   4.836807
                   16         17         18         19         20
    16  O    0.000000
    17  H    0.960880   0.000000
    18  O    2.979599   3.732406   0.000000
    19  H    2.839423   3.616098   0.965825   0.000000
    20  O    2.713025   3.622585   2.764569   2.235400   0.000000
    21  H    1.921566   2.757731   2.910572   2.359580   0.970280
    22  O    4.097824   4.820823   4.198772   4.569038   3.633204
    23  H    4.438569   5.027311   4.989871   5.361558   4.339648
    24  H    5.573025   6.403830   5.279325   5.443900   4.062339
                   21         22         23         24
    21  H    0.000000
    22  O    3.917556   0.000000
    23  H    4.484025   0.964593   0.000000
    24  H    4.681786   2.094380   2.545066   0.000000
 Stoichiometry    C6H12O6
 Framework group  C1[X(C6H12O6)]
 Deg. of freedom    66
 Full point group                 C1      NOp   1
 Largest Abelian subgroup         C1      NOp   1
 Largest concise Abelian subgroup C1      NOp   1
                         Standard orientation:                         
 ---------------------------------------------------------------------
 Center     Atomic      Atomic             Coordinates (Angstroms)
 Number     Number       Type             X           Y           Z
 ---------------------------------------------------------------------
      1          8           0        3.676508   -1.277814    0.088565
      2          6           0        2.496815   -0.980329   -0.329305
      3          1           0        1.873144   -1.759419   -0.784850
      4          8           0        2.472699    1.166308    0.618414
      5          6           0        1.834073    0.245948   -0.065218
      6          1           0        2.504995   -0.092484   -1.278166
      7          6           0        0.414529    0.541119   -0.481823
      8          1           0        0.156193   -0.050734   -1.369079
      9          6           0       -0.541275    0.171981    0.665190
     10          1           0       -0.231290    0.708418    1.569893
     11          6           0       -1.999463    0.554878    0.368537
     12          1           0       -2.080597    1.646072    0.365268
     13          6           0       -2.489758    0.062272   -0.980707
     14          1           0       -3.573269    0.209542   -1.037256
     15          1           0       -2.028422    0.646630   -1.790825
     16          8           0       -2.153748   -1.323135   -1.108349
     17          1           0       -2.649306   -1.708962   -1.835569
     18          8           0       -2.813128    0.093454    1.428678
     19          1           0       -2.501688   -0.791284    1.659032
     20          8           0       -0.415227   -1.204037    0.971042
     21          1           0       -0.839294   -1.688166    0.244936
     22          8           0        0.294582    1.938461   -0.708557
     23          1           0        0.574252    2.142164   -1.608961
     24          1           0        2.012267    2.017105    0.487187
 ---------------------------------------------------------------------
 Rotational constants (GHZ):           1.5529993           0.5399946           0.4989998
 Standard basis: 6-311+G(d,p) (5D, 7F)
 There are   348 symmetry adapted cartesian basis functions of A   symmetry.
 There are   336 symmetry adapted basis functions of A   symmetry.
   336 basis functions,   528 primitive gaussians,   348 cartesian basis functions
    48 alpha electrons       48 beta electrons
       nuclear repulsion energy       808.1455558732 Hartrees.
 NAtoms=   24 NActive=   24 NUniq=   24 SFac= 1.00D+00 NAtFMM=   60 NAOKFM=F Big=F
 Integral buffers will be    131072 words long.
 Raffenetti 2 integral format.
 Two-electron integral symmetry is turned on.
 ------------------------------------------------------------------------------
 Polarizable Continuum Model (PCM)
 =================================
 Model                : PCM.
 Atomic radii         : SMD-Coulomb.
 Polarization charges : Total charges.
 Charge compensation  : None.
 Solution method      : On-the-fly selection.
 Cavity type          : VdW (van der Waals Surface) (Alpha=1.000).
 Cavity algorithm     : GePol (No added spheres)
                        Default sphere list used, NSphG=   24.
                        Lebedev-Laikov grids with approx.  5.0 points / Ang**2.
                        Smoothing algorithm: York/Karplus (Gamma=1.0000).
                        Polarization charges: spherical gaussians, with
                                              point-specific exponents (IZeta= 3).
                        Self-potential: point-specific (ISelfS= 7).
                        Self-field    : sphere-specific E.n sum rule (ISelfD= 2).
 Solvent              : 1,4-Dioxane, Eps=   2.209900 Eps(inf)=   2.023222
 ------------------------------------------------------------------------------
 ------------------------------------------------------------------------------
 Atomic radii for non-electrostatic terms: SMD-CDS.
 ------------------------------------------------------------------------------
 Nuclear repulsion after PCM non-electrostatic terms =      808.1381427450 Hartrees.
 One-electron integrals computed using PRISM.
 NBasis=   336 RedAO= T EigKep=  8.26D-06  NBF=   336
 NBsUse=   336 1.00D-06 EigRej= -1.00D+00 NBFU=   336
 ExpMin= 4.38D-02 ExpMax= 8.59D+03 ExpMxC= 1.30D+03 IAcc=3 IRadAn=         5 AccDes= 0.00D+00
 Harris functional with IExCor= 1009 and IRadAn=       5 diagonalized for initial guess.
 HarFok:  IExCor= 1009 AccDes= 0.00D+00 IRadAn=         5 IDoV= 1 UseB2=F ITyADJ=14
 ICtDFT=  3500011 ScaDFX=  1.000000  1.000000  1.000000  1.000000
 FoFCou: FMM=F IPFlag=           0 FMFlag=      100000 FMFlg1=           0
         NFxFlg=           0 DoJE=T BraDBF=F KetDBF=T FulRan=T
         wScrn=  0.000000 ICntrl=       500 IOpCl=  0 I1Cent=   200000004 NGrid=           0
         NMat0=    1 NMatS0=      1 NMatT0=    0 NMatD0=    1 NMtDS0=    0 NMtDT0=    0
 Petite list used in FoFCou.
 Requested convergence on RMS density matrix=1.00D-08 within 400 cycles.
 Requested convergence on MAX density matrix=1.00D-06.
 Requested convergence on             energy=1.00D-06.
 No special actions if energy rises.
 Inv3:  Mode=1 IEnd=    10300827.
 Iteration    1 A*A^-1 deviation from unit magnitude is 5.00D-15 for   1848.
 Iteration    1 A*A^-1 deviation from orthogonality  is 2.12D-15 for   1848   1644.
 Iteration    1 A^-1*A deviation from unit magnitude is 4.55D-15 for   1848.
 Iteration    1 A^-1*A deviation from orthogonality  is 2.19D-15 for   1849   1848.
 EnCoef did     1 forward-backward iterations
 EnCoef did     4 forward-backward iterations
 Error on total polarization charges =  0.01114
 SCF Done:  E(RM06L) =  -687.228965614     A.U. after   18 cycles
            NFock= 18  Conv=0.39D-08     -V/T= 2.0035
 SMD-CDS (non-electrostatic) energy       (kcal/mol) =      -4.65
 (included in total energy above)
 QCSCF skips out because SCF is already converged.

 **********************************************************************

            Population analysis using the SCF density.

 **********************************************************************

 Orbital symmetries:
       Occupied  (A) (A) (A) (A) (A) (A) (A) (A) (A) (A) (A) (A)
                 (A) (A) (A) (A) (A) (A) (A) (A) (A) (A) (A) (A)
                 (A) (A) (A) (A) (A) (A) (A) (A) (A) (A) (A) (A)
                 (A) (A) (A) (A) (A) (A) (A) (A) (A) (A) (A) (A)
       Virtual   (A) (A) (A) (A) (A) (A) (A) (A) (A) (A) (A) (A)
                 (A) (A) (A) (A) (A) (A) (A) (A) (A) (A) (A) (A)
                 (A) (A) (A) (A) (A) (A) (A) (A) (A) (A) (A) (A)
                 (A) (A) (A) (A) (A) (A) (A) (A) (A) (A) (A) (A)
                 (A) (A) (A) (A) (A) (A) (A) (A) (A) (A) (A) (A)
                 (A) (A) (A) (A) (A) (A) (A) (A) (A) (A) (A) (A)
                 (A) (A) (A) (A) (A) (A) (A) (A) (A) (A) (A) (A)
                 (A) (A) (A) (A) (A) (A) (A) (A) (A) (A) (A) (A)
                 (A) (A) (A) (A) (A) (A) (A) (A) (A) (A) (A) (A)
                 (A) (A) (A) (A) (A) (A) (A) (A) (A) (A) (A) (A)
                 (A) (A) (A) (A) (A) (A) (A) (A) (A) (A) (A) (A)
                 (A) (A) (A) (A) (A) (A) (A) (A) (A) (A) (A) (A)
                 (A) (A) (A) (A) (A) (A) (A) (A) (A) (A) (A) (A)
                 (A) (A) (A) (A) (A) (A) (A) (A) (A) (A) (A) (A)
                 (A) (A) (A) (A) (A) (A) (A) (A) (A) (A) (A) (A)
                 (A) (A) (A) (A) (A) (A) (A) (A) (A) (A) (A) (A)
                 (A) (A) (A) (A) (A) (A) (A) (A) (A) (A) (A) (A)
                 (A) (A) (A) (A) (A) (A) (A) (A) (A) (A) (A) (A)
                 (A) (A) (A) (A) (A) (A) (A) (A) (A) (A) (A) (A)
                 (A) (A) (A) (A) (A) (A) (A) (A) (A) (A) (A) (A)
                 (A) (A) (A) (A) (A) (A) (A) (A) (A) (A) (A) (A)
                 (A) (A) (A) (A) (A) (A) (A) (A) (A) (A) (A) (A)
                 (A) (A) (A) (A) (A) (A) (A) (A) (A) (A) (A) (A)
                 (A) (A) (A) (A) (A) (A) (A) (A) (A) (A) (A) (A)
 The electronic state is 1-A.
 Alpha  occ. eigenvalues --  -19.02975 -19.01612 -19.00181 -18.98317 -18.97409
 Alpha  occ. eigenvalues --  -18.89802 -10.15768 -10.14537 -10.12525 -10.12159
 Alpha  occ. eigenvalues --  -10.11707 -10.11687  -1.08843  -1.04519  -1.03675
 Alpha  occ. eigenvalues --   -1.01768  -1.00011  -0.94012  -0.78448  -0.74872
 Alpha  occ. eigenvalues --   -0.69858  -0.63450  -0.58018  -0.57492  -0.53883
 Alpha  occ. eigenvalues --   -0.52968  -0.51247  -0.48103  -0.47723  -0.44807
 Alpha  occ. eigenvalues --   -0.44455  -0.42885  -0.41615  -0.41033  -0.38235
 Alpha  occ. eigenvalues --   -0.36745  -0.36374  -0.35809  -0.34324  -0.33972
 Alpha  occ. eigenvalues --   -0.31931  -0.30198  -0.29903  -0.27459  -0.26592
 Alpha  occ. eigenvalues --   -0.24774  -0.20806  -0.18383
 Alpha virt. eigenvalues --   -0.03820  -0.02611  -0.01083   0.00868   0.01108
 Alpha virt. eigenvalues --    0.02545   0.03100   0.03871   0.04614   0.04856
 Alpha virt. eigenvalues --    0.05764   0.06240   0.06679   0.07607   0.08996
 Alpha virt. eigenvalues --    0.09521   0.10280   0.10947   0.11214   0.11929
 Alpha virt. eigenvalues --    0.12329   0.12584   0.13320   0.13733   0.14066
 Alpha virt. eigenvalues --    0.14548   0.15090   0.15582   0.15942   0.16490
 Alpha virt. eigenvalues --    0.16713   0.17079   0.17445   0.17988   0.18982
 Alpha virt. eigenvalues --    0.19326   0.19520   0.20341   0.22057   0.22464
 Alpha virt. eigenvalues --    0.22734   0.23360   0.24321   0.24477   0.24798
 Alpha virt. eigenvalues --    0.25677   0.26273   0.26859   0.28417   0.28921
 Alpha virt. eigenvalues --    0.29103   0.30865   0.31167   0.31313   0.31830
 Alpha virt. eigenvalues --    0.32874   0.33580   0.33937   0.34184   0.35348
 Alpha virt. eigenvalues --    0.35530   0.35873   0.36548   0.36668   0.37679
 Alpha virt. eigenvalues --    0.37950   0.39343   0.39361   0.41681   0.42316
 Alpha virt. eigenvalues --    0.43442   0.44986   0.46501   0.47853   0.49409
 Alpha virt. eigenvalues --    0.51231   0.52031   0.52452   0.54060   0.54860
 Alpha virt. eigenvalues --    0.55222   0.57106   0.57145   0.58250   0.59108
 Alpha virt. eigenvalues --    0.60288   0.61942   0.63300   0.64974   0.65779
 Alpha virt. eigenvalues --    0.67184   0.67965   0.68633   0.69600   0.71005
 Alpha virt. eigenvalues --    0.71474   0.72482   0.74158   0.76190   0.79122
 Alpha virt. eigenvalues --    0.80646   0.84743   0.86286   0.89517   0.92035
 Alpha virt. eigenvalues --    0.93854   0.95032   0.99528   1.01127   1.02016
 Alpha virt. eigenvalues --    1.03980   1.06796   1.07403   1.08689   1.09543
 Alpha virt. eigenvalues --    1.10281   1.13290   1.15019   1.15335   1.16660
 Alpha virt. eigenvalues --    1.16949   1.19016   1.19964   1.20876   1.21567
 Alpha virt. eigenvalues --    1.21742   1.23156   1.26305   1.26877   1.27410
 Alpha virt. eigenvalues --    1.30474   1.30916   1.34489   1.36615   1.40626
 Alpha virt. eigenvalues --    1.41023   1.43235   1.44553   1.45210   1.47509
 Alpha virt. eigenvalues --    1.50160   1.51109   1.52968   1.54406   1.54519
 Alpha virt. eigenvalues --    1.55037   1.58473   1.59755   1.60357   1.61481
 Alpha virt. eigenvalues --    1.62799   1.64100   1.65008   1.66837   1.67696
 Alpha virt. eigenvalues --    1.69363   1.69862   1.72496   1.74171   1.75398
 Alpha virt. eigenvalues --    1.76915   1.80400   1.81320   1.82131   1.84109
 Alpha virt. eigenvalues --    1.85224   1.87266   1.91303   1.91945   1.93204
 Alpha virt. eigenvalues --    1.96402   2.00463   2.02230   2.03984   2.04627
 Alpha virt. eigenvalues --    2.06017   2.06840   2.07310   2.09498   2.11873
 Alpha virt. eigenvalues --    2.14045   2.16031   2.17379   2.20967   2.22166
 Alpha virt. eigenvalues --    2.25847   2.28605   2.31183   2.31753   2.33458
 Alpha virt. eigenvalues --    2.34911   2.40367   2.44206   2.44855   2.50339
 Alpha virt. eigenvalues --    2.51924   2.56092   2.62384   2.64041   2.65180
 Alpha virt. eigenvalues --    2.68268   2.69267   2.72353   2.73279   2.75143
 Alpha virt. eigenvalues --    2.79138   2.81278   2.85771   2.87890   2.89515
 Alpha virt. eigenvalues --    2.92910   2.94158   2.95935   2.96714   3.02144
 Alpha virt. eigenvalues --    3.02560   3.03380   3.07315   3.08505   3.09934
 Alpha virt. eigenvalues --    3.12821   3.14178   3.14797   3.16021   3.17085
 Alpha virt. eigenvalues --    3.19864   3.20466   3.21370   3.24120   3.24871
 Alpha virt. eigenvalues --    3.29527   3.31732   3.33382   3.34973   3.37040
 Alpha virt. eigenvalues --    3.38822   3.42116   3.44324   3.52107   3.57418
 Alpha virt. eigenvalues --    3.58823   3.79063   3.81035   3.85416   3.87661
 Alpha virt. eigenvalues --    3.90693   3.93579   3.97292   3.99528   4.03172
 Alpha virt. eigenvalues --    4.05172   4.05578   4.08492   4.20125   4.22648
 Alpha virt. eigenvalues --    4.26030   4.34051   4.38165   5.12802   5.13884
 Alpha virt. eigenvalues --    5.20356   5.23239   5.23747   5.24889   5.29187
 Alpha virt. eigenvalues --    5.46254   5.51235   5.51371   5.51991   5.54203
 Alpha virt. eigenvalues --    5.73213   5.74185   5.78425   5.79850   5.81868
 Alpha virt. eigenvalues --    5.96711  23.83443  23.90378  23.92678  23.93424
 Alpha virt. eigenvalues --   23.96780  24.08305  50.16275  50.17551  50.18219
 Alpha virt. eigenvalues --   50.20314  50.26080  50.28977
          Condensed to atoms (all electrons):
               1          2          3          4          5          6
     1  O    8.275723   0.411417  -0.025103   0.021309  -0.291988  -0.040326
     2  C    0.411417   6.688746   0.405980  -0.162532  -1.329389  -0.138455
     3  H   -0.025103   0.405980   0.632917   0.002883  -0.215133  -0.034951
     4  O    0.021309  -0.162532   0.002883   7.760072   0.331837  -0.074553
     5  C   -0.291988  -1.329389  -0.215133   0.331837  12.745350   0.294788
     6  H   -0.040326  -0.138455  -0.034951  -0.074553   0.294788   0.716497
     7  C    0.119906  -0.552989   0.079196   0.078353  -4.365595   0.230032
     8  H   -0.000625   0.066913  -0.003425   0.011755  -0.191434  -0.015083
     9  C    0.001391   0.108794   0.037521  -0.092546   0.198480  -0.054923
    10  H   -0.000083   0.002396  -0.000628   0.005672  -0.103758   0.000266
    11  C    0.003130   0.075134   0.002937   0.025301  -0.611780   0.003505
    12  H   -0.000008  -0.000358  -0.000001  -0.000010   0.002335  -0.000017
    13  C    0.000229   0.023704   0.000933   0.002766  -0.209021   0.000607
    14  H   -0.000000  -0.000210  -0.000001   0.000001   0.004902   0.000000
    15  H    0.000009  -0.000426  -0.000019  -0.000107   0.005744   0.000099
    16  O   -0.000058  -0.004465  -0.001339  -0.000068   0.021306   0.000207
    17  H    0.000004  -0.000927   0.000019   0.000007  -0.002433   0.000016
    18  O    0.000025  -0.003087  -0.000014  -0.000164  -0.001719   0.000101
    19  H   -0.000018   0.000994  -0.000035   0.000063   0.004146  -0.000010
    20  O   -0.004132   0.078459  -0.009175  -0.001819   0.007130  -0.008935
    21  H    0.000695  -0.009723  -0.001012  -0.000486  -0.027516   0.001476
    22  O   -0.001837   0.111434  -0.000117   0.006478  -0.222996  -0.032944
    23  H    0.000008  -0.011807  -0.000024  -0.003096   0.055576   0.003480
    24  H    0.000232   0.100911   0.000184   0.266346  -0.029042  -0.000031
               7          8          9         10         11         12
     1  O    0.119906  -0.000625   0.001391  -0.000083   0.003130  -0.000008
     2  C   -0.552989   0.066913   0.108794   0.002396   0.075134  -0.000358
     3  H    0.079196  -0.003425   0.037521  -0.000628   0.002937  -0.000001
     4  O    0.078353   0.011755  -0.092546   0.005672   0.025301  -0.000010
     5  C   -4.365595  -0.191434   0.198480  -0.103758  -0.611780   0.002335
     6  H    0.230032  -0.015083  -0.054923   0.000266   0.003505  -0.000017
     7  C   11.847852   0.363064  -1.983050   0.066808   0.830964   0.005296
     8  H    0.363064   0.565492   0.012915   0.004886  -0.015087  -0.000362
     9  C   -1.983050   0.012915   8.785251   0.364934  -1.883206  -0.017010
    10  H    0.066808   0.004886   0.364934   0.517541  -0.008308  -0.005245
    11  C    0.830964  -0.015087  -1.883206  -0.008308   7.676591   0.302173
    12  H    0.005296  -0.000362  -0.017010  -0.005245   0.302173   0.562078
    13  C   -0.084212   0.046083   0.325703   0.026997  -0.322685   0.012612
    14  H   -0.009715   0.000222   0.058758  -0.000218  -0.084951  -0.005303
    15  H    0.046114  -0.008562  -0.055486  -0.000647   0.028649  -0.002093
    16  O   -0.078180  -0.003458   0.081149  -0.001012  -0.174928   0.017544
    17  H    0.001523   0.000501  -0.003500   0.000131  -0.015532   0.000875
    18  O    0.071820  -0.002347  -0.213013  -0.002145   0.470906  -0.052378
    19  H    0.016106   0.000209  -0.035885  -0.000741   0.009112   0.007067
    20  O   -0.301758   0.008855   0.346485  -0.051183  -0.154734   0.014213
    21  H    0.067312  -0.005102   0.015062   0.006010  -0.002443  -0.002652
    22  O    0.014333  -0.010981  -0.040165   0.004376   0.057076  -0.002678
    23  H    0.034492  -0.012353  -0.018775  -0.000246   0.000071  -0.000129
    24  H   -0.069250   0.001153  -0.023920   0.000743   0.013722  -0.000142
              13         14         15         16         17         18
     1  O    0.000229  -0.000000   0.000009  -0.000058   0.000004   0.000025
     2  C    0.023704  -0.000210  -0.000426  -0.004465  -0.000927  -0.003087
     3  H    0.000933  -0.000001  -0.000019  -0.001339   0.000019  -0.000014
     4  O    0.002766   0.000001  -0.000107  -0.000068   0.000007  -0.000164
     5  C   -0.209021   0.004902   0.005744   0.021306  -0.002433  -0.001719
     6  H    0.000607   0.000000   0.000099   0.000207   0.000016   0.000101
     7  C   -0.084212  -0.009715   0.046114  -0.078180   0.001523   0.071820
     8  H    0.046083   0.000222  -0.008562  -0.003458   0.000501  -0.002347
     9  C    0.325703   0.058758  -0.055486   0.081149  -0.003500  -0.213013
    10  H    0.026997  -0.000218  -0.000647  -0.001012   0.000131  -0.002145
    11  C   -0.322685  -0.084951   0.028649  -0.174928  -0.015532   0.470906
    12  H    0.012612  -0.005303  -0.002093   0.017544   0.000875  -0.052378
    13  C    5.542420   0.432706   0.336729   0.145917   0.041972  -0.197273
    14  H    0.432706   0.539365  -0.040814  -0.044445  -0.006766  -0.009832
    15  H    0.336729  -0.040814   0.616100  -0.058417   0.000882   0.012052
    16  O    0.145917  -0.044445  -0.058417   8.295529   0.229142   0.005437
    17  H    0.041972  -0.006766   0.000882   0.229142   0.429463   0.001278
    18  O   -0.197273  -0.009832   0.012052   0.005437   0.001278   7.976423
    19  H    0.005325  -0.000723  -0.000960   0.006307   0.001004   0.249574
    20  O    0.015657  -0.000589  -0.001566   0.026638   0.001627  -0.016700
    21  H    0.028382  -0.000922  -0.001306  -0.031830   0.004199  -0.005641
    22  O   -0.035659   0.000344  -0.005743   0.001556  -0.000102  -0.003776
    23  H   -0.002363   0.000052  -0.000052   0.000449  -0.000010   0.000181
    24  H   -0.000713  -0.000000   0.000016  -0.000020  -0.000001  -0.000004
              19         20         21         22         23         24
     1  O   -0.000018  -0.004132   0.000695  -0.001837   0.000008   0.000232
     2  C    0.000994   0.078459  -0.009723   0.111434  -0.011807   0.100911
     3  H   -0.000035  -0.009175  -0.001012  -0.000117  -0.000024   0.000184
     4  O    0.000063  -0.001819  -0.000486   0.006478  -0.003096   0.266346
     5  C    0.004146   0.007130  -0.027516  -0.222996   0.055576  -0.029042
     6  H   -0.000010  -0.008935   0.001476  -0.032944   0.003480  -0.000031
     7  C    0.016106  -0.301758   0.067312   0.014333   0.034492  -0.069250
     8  H    0.000209   0.008855  -0.005102  -0.010981  -0.012353   0.001153
     9  C   -0.035885   0.346485   0.015062  -0.040165  -0.018775  -0.023920
    10  H   -0.000741  -0.051183   0.006010   0.004376  -0.000246   0.000743
    11  C    0.009112  -0.154734  -0.002443   0.057076   0.000071   0.013722
    12  H    0.007067   0.014213  -0.002652  -0.002678  -0.000129  -0.000142
    13  C    0.005325   0.015657   0.028382  -0.035659  -0.002363  -0.000713
    14  H   -0.000723  -0.000589  -0.000922   0.000344   0.000052  -0.000000
    15  H   -0.000960  -0.001566  -0.001306  -0.005743  -0.000052   0.000016
    16  O    0.006307   0.026638  -0.031830   0.001556   0.000449  -0.000020
    17  H    0.001004   0.001627   0.004199  -0.000102  -0.000010  -0.000001
    18  O    0.249574  -0.016700  -0.005641  -0.003776   0.000181  -0.000004
    19  H    0.437887   0.044156  -0.007869  -0.000028   0.000010  -0.000009
    20  O    0.044156   8.028604   0.249759   0.025888  -0.001345  -0.000051
    21  H   -0.007869   0.249759   0.407963  -0.001757   0.000088   0.000098
    22  O   -0.000028   0.025888  -0.001757   8.184113   0.240007   0.031011
    23  H    0.000010  -0.001345   0.000088   0.240007   0.412294  -0.004650
    24  H   -0.000009  -0.000051   0.000098   0.031011  -0.004650   0.410177
 Mulliken charges:
               1
     1  O   -0.469899
     2  C    0.139485
     3  H    0.128407
     4  O   -0.177463
     5  C   -0.069792
     6  H    0.149156
     7  C   -0.428422
     8  H    0.186772
     9  C    0.085034
    10  H    0.173452
    11  C   -0.225617
    12  H    0.164194
    13  C   -0.136815
    14  H    0.168139
    15  H    0.129805
    16  O   -0.432962
    17  H    0.316626
    18  O   -0.279702
    19  H    0.264319
    20  O   -0.295483
    21  H    0.317217
    22  O   -0.317833
    23  H    0.308143
    24  H    0.303239
 Sum of Mulliken charges =  -0.00000
 Mulliken charges with hydrogens summed into heavy atoms:
               1
     1  O   -0.469899
     2  C    0.417047
     4  O    0.125776
     5  C   -0.069792
     7  C   -0.241651
     9  C    0.258486
    11  C   -0.061423
    13  C    0.161129
    16  O   -0.116336
    18  O   -0.015383
    20  O    0.021734
    22  O   -0.009690
 Electronic spatial extent (au):  <R**2>=           2367.8186
 Charge=             -0.0000 electrons
 Dipole moment (field-independent basis, Debye):
    X=             -6.7391    Y=              3.4287    Z=             -6.5006  Tot=              9.9714
 Quadrupole moment (field-independent basis, Debye-Ang):
   XX=           -100.5591   YY=            -68.7267   ZZ=            -65.6788
   XY=             17.0750   XZ=              2.8835   YZ=              0.6702
 Traceless Quadrupole moment (field-independent basis, Debye-Ang):
   XX=            -22.2375   YY=              9.5949   ZZ=             12.6427
   XY=             17.0750   XZ=              2.8835   YZ=              0.6702
 Octapole moment (field-independent basis, Debye-Ang**2):
  XXX=           -138.1163  YYY=             10.3052  ZZZ=            -19.6296  XYY=            -17.0000
  XXY=             32.2010  XXZ=            -46.5920  XZZ=             -5.5735  YZZ=              1.4725
  YYZ=            -10.7378  XYZ=             -2.6939
 Hexadecapole moment (field-independent basis, Debye-Ang**3):
 XXXX=          -2533.1720 YYYY=           -489.8294 ZZZZ=           -341.5873 XXXY=            228.9256
 XXXZ=             63.0023 YYYX=             87.4887 YYYZ=              4.7242 ZZZX=             28.0517
 ZZZY=             -6.0241 XXYY=           -439.9923 XXZZ=           -374.5975 YYZZ=           -118.1142
 XXYZ=              9.8470 YYXZ=              5.7968 ZZXY=             45.3551
 N-N= 8.081381427450D+02 E-N=-3.229617058399D+03  KE= 6.847999852141D+02
 1\1\GINC-N2466\SP\RM06L\6-311+G(d,p)\C6H12O6\YKIM\09-Sep-2018\0\\# m06
 l/6-311+g(d,p) scf=(xqc,maxconventionalcycles=400) scrf=(smd,solvent=1
 ,4-dioxane) temperature=443.15\\Title Card Required\\0,1\O,0,1.208958,
 0.91269,-0.866674\C,0,0.024615,0.953082,-0.366186\H,0,-0.573248,1.8672
 91,-0.467427\O,0,-0.067473,-1.336006,0.142146\C,0,-0.674524,-0.1725,0.
 14076\H,0,0.015088,0.800367,0.924264\C,0,-2.09856,-0.124436,0.636344\H
 ,0,-2.33318,0.884867,0.99761\C,0,-3.052437,-0.48081,-0.516296\H,0,-2.7
 64761,-1.457251,-0.923909\C,0,-4.518509,-0.573393,-0.065754\H,0,-4.630
 399,-1.447704,0.582596\C,0,-4.984203,0.636116,0.724009\H,0,-6.070969,0
 .580699,0.845462\H,0,-4.533276,0.633116,1.727628\O,0,-4.608221,1.81788
 8,0.009445\H,0,-5.087023,2.572984,0.361396\O,0,-5.327027,-0.807882,-1.
 201613\H,0,-4.992524,-0.240642,-1.908129\O,0,-2.889959,0.442268,-1.576
 666\H,0,-3.294533,1.273886,-1.283111\O,0,-2.256156,-1.111731,1.645686\
 H,0,-1.975366,-0.749815,2.494575\H,0,-0.550716,-1.930587,0.747145\\Ver
 sion=ES64L-G16RevA.03\State=1-A\HF=-687.2289656\RMSD=3.865e-09\Dipole=
 -2.6684719,0.5020821,2.8315449\Quadrupole=-17.2624098,9.0154544,8.2469
 555,-10.8063516,5.5641409,0.9575704\PG=C01 [X(C6H12O6)]\\@


 IT TAKES GREATER CHARACTER TO CARRY OFF GOOD FORTUNE THAN BAD.
                     FRENCH PROVERB.
 Job cpu time:       0 days  0 hours 25 minutes 15.1 seconds.
 Elapsed time:       0 days  0 hours  1 minutes  4.1 seconds.
 File lengths (MBytes):  RWF=    121 Int=      0 D2E=      0 Chk=      8 Scr=      1
 Normal termination of Gaussian 16 at Sun Sep  9 22:48:39 2018.
