 Entering Gaussian System, Link 0=g16
 Initial command:
 /nopt/nrel/apps/gaussian/G16.sandy/g16/l1.exe "/scratch/ykim/gaussianScratch.5606388/Gau-8359.inp" -scrdir="/scratch/ykim/gaussianScratch.5606388/"
 Default linda workers: n2470
 Default is to use  24 SMP processors on each worker.
 Entering Link 1 = /nopt/nrel/apps/gaussian/G16.sandy/g16/l1.exe PID=      8360.
  
 Copyright (c) 1988,1990,1992,1993,1995,1998,2003,2009,2016,
            Gaussian, Inc.  All Rights Reserved.
  
 This is part of the Gaussian(R) 16 program.  It is based on
 the Gaussian(R) 09 system (copyright 2009, Gaussian, Inc.),
 the Gaussian(R) 03 system (copyright 2003, Gaussian, Inc.),
 the Gaussian(R) 98 system (copyright 1998, Gaussian, Inc.),
 the Gaussian(R) 94 system (copyright 1995, Gaussian, Inc.),
 the Gaussian 92(TM) system (copyright 1992, Gaussian, Inc.),
 the Gaussian 90(TM) system (copyright 1990, Gaussian, Inc.),
 the Gaussian 88(TM) system (copyright 1988, Gaussian, Inc.),
 the Gaussian 86(TM) system (copyright 1986, Carnegie Mellon
 University), and the Gaussian 82(TM) system (copyright 1983,
 Carnegie Mellon University). Gaussian is a federally registered
 trademark of Gaussian, Inc.
  
 This software contains proprietary and confidential information,
 including trade secrets, belonging to Gaussian, Inc.
  
 This software is provided under written license and may be
 used, copied, transmitted, or stored only in accord with that
 written license.
  
 The following legend is applicable only to US Government
 contracts under FAR:
  
                    RESTRICTED RIGHTS LEGEND
  
 Use, reproduction and disclosure by the US Government is
 subject to restrictions as set forth in subparagraphs (a)
 and (c) of the Commercial Computer Software - Restricted
 Rights clause in FAR 52.227-19.
  
 Gaussian, Inc.
 340 Quinnipiac St., Bldg. 40, Wallingford CT 06492
  
  
 ---------------------------------------------------------------
 Warning -- This program may not be used in any manner that
 competes with the business of Gaussian, Inc. or will provide
 assistance to any competitor of Gaussian, Inc.  The licensee
 of this program is prohibited from giving any competitor of
 Gaussian, Inc. access to this program.  By using this program,
 the user acknowledges that Gaussian, Inc. is engaged in the
 business of creating and licensing software in the field of
 computational chemistry and represents and warrants to the
 licensee that it is not a competitor of Gaussian, Inc. and that
 it will not use this program in any manner prohibited above.
 ---------------------------------------------------------------
  

 Cite this work as:
 Gaussian 16, Revision A.03,
 M. J. Frisch, G. W. Trucks, H. B. Schlegel, G. E. Scuseria, 
 M. A. Robb, J. R. Cheeseman, G. Scalmani, V. Barone, 
 G. A. Petersson, H. Nakatsuji, X. Li, M. Caricato, A. V. Marenich, 
 J. Bloino, B. G. Janesko, R. Gomperts, B. Mennucci, H. P. Hratchian, 
 J. V. Ortiz, A. F. Izmaylov, J. L. Sonnenberg, D. Williams-Young, 
 F. Ding, F. Lipparini, F. Egidi, J. Goings, B. Peng, A. Petrone, 
 T. Henderson, D. Ranasinghe, V. G. Zakrzewski, J. Gao, N. Rega, 
 G. Zheng, W. Liang, M. Hada, M. Ehara, K. Toyota, R. Fukuda, 
 J. Hasegawa, M. Ishida, T. Nakajima, Y. Honda, O. Kitao, H. Nakai, 
 T. Vreven, K. Throssell, J. A. Montgomery, Jr., J. E. Peralta, 
 F. Ogliaro, M. J. Bearpark, J. J. Heyd, E. N. Brothers, K. N. Kudin, 
 V. N. Staroverov, T. A. Keith, R. Kobayashi, J. Normand, 
 K. Raghavachari, A. P. Rendell, J. C. Burant, S. S. Iyengar, 
 J. Tomasi, M. Cossi, J. M. Millam, M. Klene, C. Adamo, R. Cammi, 
 J. W. Ochterski, R. L. Martin, K. Morokuma, O. Farkas, 
 J. B. Foresman, and D. J. Fox, Gaussian, Inc., Wallingford CT, 2016.
 
 ******************************************
 Gaussian 16:  ES64L-G16RevA.03 25-Dec-2016
                 9-Sep-2018 
 ******************************************
 %chk=Cr_TS_sugar_4_M06L.chk
 %nprocshared=24
 Will use up to   24 processors via shared memory.
 %mem=24GB
 SetLPE:    new flags="-opt 'Tsnet.Node.lindarsharg: ssh'  -nodelist 'n2470.hpc.nrel.gov' -env GAUSS_MDEF=3221225472 -env GAUSS_EXEDIR="/nopt/nrel/apps/gaussian/G16.sandy/g16/bsd:/nopt/nrel/apps/gaussian/G16.sandy/g16/local:/nopt/nrel/apps/gaussian/G16.sandy/g16/extras:/nopt/nrel/apps/gaussian/G16.sandy/g16""
 Will use up to    1 processors via Linda.
 Default route: CacheSize=327680 MaxDisk=128GB
 ----------------------------------------------------------------------
 # m06l/6-311+g(d,p) scf=(xqc,maxconventionalcycles=400) scrf=(smd,solv
 ent=1,4-dioxane) temperature=443.15
 ----------------------------------------------------------------------
 1/4=327680,38=1,112=443150,172=1/1;
 2/4=327680,12=2,17=6,18=5,40=1/2;
 3/4=327680,5=4,6=6,7=111,11=2,25=1,30=1,70=32201,72=31,74=-53/1,2,3;
 4/4=327680/1;
 5/4=327680,5=2,8=3,13=1,38=5,53=31,85=400/2,8;
 6/4=327680,7=2,8=2,9=2,10=2,28=1/1;
 99/4=327680,5=1,9=1/99;
 -------------------
 Title Card Required
 -------------------
 Symbolic Z-matrix:
 Charge =  0 Multiplicity = 1
 O                     1.40313   0.01607   1.45949 
 C                     0.1682   -0.35094   1.28638 
 H                    -0.44979  -0.57679   2.15919 
 O                     0.2974    0.31491  -0.9076 
 C                    -0.4823   -0.17359   0.0421 
 H                     0.1086   -1.41546   0.60016 
 C                    -1.8991   -0.50177  -0.34112 
 H                    -2.25044  -1.3715    0.22639 
 C                    -2.80803   0.69774  -0.01245 
 H                    -2.37721   1.60829  -0.44404 
 C                    -4.2314    0.5362   -0.56871 
 H                    -4.1925    0.61714  -1.65924 
 C                    -4.85855  -0.80546  -0.23706 
 H                    -5.92255  -0.76967  -0.4929 
 H                    -4.39457  -1.60125  -0.83781 
 O                    -4.67318  -1.06229   1.15892 
 H                    -5.26727  -1.76358   1.43939 
 O                    -5.01714   1.61824  -0.11247 
 H                    -4.78737   1.7666    0.81379 
 O                    -2.81411   0.90015   1.38786 
 H                    -3.3432    0.18024   1.7673 
 O                    -1.92374  -0.72964  -1.74485 
 H                    -1.78221  -1.6681   -1.91915 
 H                    -0.10408   0.12336  -1.78127 
 
                          Input orientation:                          
 ---------------------------------------------------------------------
 Center     Atomic      Atomic             Coordinates (Angstroms)
 Number     Number       Type             X           Y           Z
 ---------------------------------------------------------------------
      1          8           0        1.403132    0.016068    1.459491
      2          6           0        0.168204   -0.350944    1.286380
      3          1           0       -0.449788   -0.576788    2.159192
      4          8           0        0.297395    0.314909   -0.907603
      5          6           0       -0.482297   -0.173586    0.042101
      6          1           0        0.108597   -1.415464    0.600157
      7          6           0       -1.899101   -0.501773   -0.341124
      8          1           0       -2.250437   -1.371504    0.226387
      9          6           0       -2.808026    0.697743   -0.012454
     10          1           0       -2.377212    1.608286   -0.444039
     11          6           0       -4.231396    0.536200   -0.568705
     12          1           0       -4.192501    0.617140   -1.659242
     13          6           0       -4.858550   -0.805461   -0.237056
     14          1           0       -5.922549   -0.769666   -0.492904
     15          1           0       -4.394570   -1.601252   -0.837805
     16          8           0       -4.673181   -1.062295    1.158922
     17          1           0       -5.267266   -1.763580    1.439387
     18          8           0       -5.017138    1.618236   -0.112469
     19          1           0       -4.787366    1.766602    0.813789
     20          8           0       -2.814111    0.900149    1.387862
     21          1           0       -3.343204    0.180244    1.767301
     22          8           0       -1.923743   -0.729644   -1.744852
     23          1           0       -1.782208   -1.668101   -1.919150
     24          1           0       -0.104075    0.123359   -1.781271
 ---------------------------------------------------------------------
                    Distance matrix (angstroms):
                    1          2          3          4          5
     1  O    0.000000
     2  C    1.299889   0.000000
     3  H    2.067456   1.093033   0.000000
     4  O    2.629657   2.296435   3.280036   0.000000
     5  C    2.366391   1.415216   2.155389   1.322303   0.000000
     6  H    2.112714   1.267934   1.856276   2.302862   1.484198
     7  C    3.796724   2.635388   2.890971   2.410905   1.503962
     8  H    4.098105   2.831069   2.758559   3.259044   2.143662
     9  C    4.512777   3.412427   3.449893   3.254457   2.484191
    10  H    4.522122   3.648572   3.907214   3.006865   2.646149
    11  C    6.010992   4.856423   4.793821   4.546842   3.864275
    12  H    6.434197   5.350666   5.478485   4.562397   4.157575
    13  C    6.539254   5.272163   5.023094   5.318706   4.430438
    14  H    7.621996   6.359124   6.084565   6.327399   5.498898
    15  H    6.442565   5.185975   5.058935   5.068637   4.256565
    16  O    6.178575   4.895025   4.367300   5.556424   4.427257
    17  H    6.903750   5.618121   5.013451   6.387013   5.232248
    18  O    6.801314   5.720334   5.553311   5.529481   4.878453
    19  H    6.465568   5.409715   5.110398   5.561061   4.784710
    20  O    4.309509   3.235697   2.892458   3.910644   2.898506
    21  H    4.759139   3.583773   3.016377   4.519647   3.359509
    22  O    4.678889   3.702435   4.175819   2.593363   2.362238
    23  H    4.939436   3.976736   4.427096   3.046359   2.787445
    24  H    3.575713   3.116020   4.017085   0.980390   1.885713
                    6          7          8          9         10
     6  H    0.000000
     7  C    2.398269   0.000000
     8  H    2.388865   1.096329   0.000000
     9  C    3.653440   1.540457   2.156324   0.000000
    10  H    4.051254   2.165994   3.056909   1.095881   0.000000
    11  C    4.900079   2.562963   2.862814   1.536715   2.145439
    12  H    5.266480   2.872122   3.358856   2.152946   2.398825
    13  C    5.074010   2.976810   2.708770   2.552394   3.467860
    14  H    6.163324   4.035212   3.789986   3.476259   4.269246
    15  H    4.730831   2.771807   2.404703   2.912680   3.811288
    16  O    4.827251   3.203099   2.614368   2.819337   3.869491
    17  H    5.452100   4.013342   3.275111   3.770121   4.823814
    18  O    5.998694   3.777417   4.087542   2.395305   2.660685
    19  H    5.843084   3.849860   4.077838   2.396440   2.723240
    20  O    3.811137   2.406662   2.612883   1.414882   2.012014
    21  H    3.977869   2.645002   2.444684   1.929183   2.804009
    22  O    3.178022   1.422317   2.098689   2.412590   2.713607
    23  H    3.160044   1.965744   2.215973   3.207025   3.642073
    24  H    2.843309   2.384729   3.297298   3.281765   3.026607
                   11         12         13         14         15
    11  C    0.000000
    12  H    1.094228   0.000000
    13  C    1.517685   2.118969   0.000000
    14  H    2.137997   2.505323   1.094912   0.000000
    15  H    2.160496   2.374206   1.099755   1.773474   0.000000
    16  O    2.394798   3.315660   1.431461   2.091669   2.086868
    17  H    3.224042   4.052709   1.973703   2.269584   2.444085
    18  O    1.412920   2.018595   2.432073   2.581971   3.358393
    19  H    1.932429   2.791238   2.779362   3.070626   3.771537
    20  O    2.443217   3.356322   3.119166   3.998493   3.702493
    21  H    2.524384   3.557159   2.699136   3.558634   3.326511
    22  O    2.882871   2.639776   3.300347   4.190397   2.772620
    23  H    3.561063   3.331575   3.610743   4.470323   2.828111
    24  H    4.321520   4.119944   5.084520   6.025946   4.719402
                   16         17         18         19         20
    16  O    0.000000
    17  H    0.960936   0.000000
    18  O    2.986635   3.729276   0.000000
    19  H    2.852159   3.617162   0.965796   0.000000
    20  O    2.712884   3.621612   2.760429   2.230255   0.000000
    21  H    1.919080   2.754631   2.898864   2.347620   0.970658
    22  O    4.012726   4.731548   4.212637   4.580199   3.641823
    23  H    4.266058   4.840921   4.952664   5.319503   4.312431
    24  H    5.561226   6.371163   5.399791   5.600696   4.241592
                   21         22         23         24
    21  H    0.000000
    22  O    3.895893   0.000000
    23  H    4.409423   0.964942   0.000000
    24  H    4.804951   2.010008   2.458550   0.000000
 Stoichiometry    C6H12O6
 Framework group  C1[X(C6H12O6)]
 Deg. of freedom    66
 Full point group                 C1      NOp   1
 Largest Abelian subgroup         C1      NOp   1
 Largest concise Abelian subgroup C1      NOp   1
                         Standard orientation:                         
 ---------------------------------------------------------------------
 Center     Atomic      Atomic             Coordinates (Angstroms)
 Number     Number       Type             X           Y           Z
 ---------------------------------------------------------------------
      1          8           0       -3.781976   -1.121510   -0.031718
      2          6           0       -2.557000   -0.967967    0.375185
      3          1           0       -2.007692   -1.832891    0.755825
      4          8           0       -2.513461    1.110862   -0.599589
      5          6           0       -1.820205    0.198625    0.060488
      6          1           0       -2.503247   -0.139970    1.333928
      7          6           0       -0.398593    0.543778    0.409475
      8          1           0       -0.125585    0.088489    1.368701
      9          6           0        0.542438   -0.005653   -0.679375
     10          1           0        0.183368    0.314000   -1.664182
     11          6           0        1.989525    0.486036   -0.519146
     12          1           0        2.024706    1.553937   -0.755121
     13          6           0        2.530568    0.316073    0.888601
     14          1           0        3.609330    0.503024    0.876194
     15          1           0        2.069470    1.050730    1.564713
     16          8           0        2.243950   -1.015437    1.329070
     17          1           0        2.785289   -1.225270    2.094786
     18          8           0        2.794059   -0.165461   -1.480718
     19          1           0        2.512363   -1.088815   -1.509483
     20          8           0        0.467880   -1.418567   -0.681602
     21          1           0        0.937193   -1.719789    0.112871
     22          8           0       -0.294378    1.961983    0.438097
     23          1           0       -0.468167    2.277534    1.333272
     24          1           0       -2.066017    1.978701   -0.511192
 ---------------------------------------------------------------------
 Rotational constants (GHZ):           1.6141693           0.5261339           0.4899644
 Standard basis: 6-311+G(d,p) (5D, 7F)
 There are   348 symmetry adapted cartesian basis functions of A   symmetry.
 There are   336 symmetry adapted basis functions of A   symmetry.
   336 basis functions,   528 primitive gaussians,   348 cartesian basis functions
    48 alpha electrons       48 beta electrons
       nuclear repulsion energy       807.1139836490 Hartrees.
 NAtoms=   24 NActive=   24 NUniq=   24 SFac= 1.00D+00 NAtFMM=   60 NAOKFM=F Big=F
 Integral buffers will be    131072 words long.
 Raffenetti 2 integral format.
 Two-electron integral symmetry is turned on.
 ------------------------------------------------------------------------------
 Polarizable Continuum Model (PCM)
 =================================
 Model                : PCM.
 Atomic radii         : SMD-Coulomb.
 Polarization charges : Total charges.
 Charge compensation  : None.
 Solution method      : On-the-fly selection.
 Cavity type          : VdW (van der Waals Surface) (Alpha=1.000).
 Cavity algorithm     : GePol (No added spheres)
                        Default sphere list used, NSphG=   24.
                        Lebedev-Laikov grids with approx.  5.0 points / Ang**2.
                        Smoothing algorithm: York/Karplus (Gamma=1.0000).
                        Polarization charges: spherical gaussians, with
                                              point-specific exponents (IZeta= 3).
                        Self-potential: point-specific (ISelfS= 7).
                        Self-field    : sphere-specific E.n sum rule (ISelfD= 2).
 Solvent              : 1,4-Dioxane, Eps=   2.209900 Eps(inf)=   2.023222
 ------------------------------------------------------------------------------
 ------------------------------------------------------------------------------
 Atomic radii for non-electrostatic terms: SMD-CDS.
 ------------------------------------------------------------------------------
 Nuclear repulsion after PCM non-electrostatic terms =      807.1067507463 Hartrees.
 One-electron integrals computed using PRISM.
 NBasis=   336 RedAO= T EigKep=  7.96D-06  NBF=   336
 NBsUse=   336 1.00D-06 EigRej= -1.00D+00 NBFU=   336
 ExpMin= 4.38D-02 ExpMax= 8.59D+03 ExpMxC= 1.30D+03 IAcc=3 IRadAn=         5 AccDes= 0.00D+00
 Harris functional with IExCor= 1009 and IRadAn=       5 diagonalized for initial guess.
 HarFok:  IExCor= 1009 AccDes= 0.00D+00 IRadAn=         5 IDoV= 1 UseB2=F ITyADJ=14
 ICtDFT=  3500011 ScaDFX=  1.000000  1.000000  1.000000  1.000000
 FoFCou: FMM=F IPFlag=           0 FMFlag=      100000 FMFlg1=           0
         NFxFlg=           0 DoJE=T BraDBF=F KetDBF=T FulRan=T
         wScrn=  0.000000 ICntrl=       500 IOpCl=  0 I1Cent=   200000004 NGrid=           0
         NMat0=    1 NMatS0=      1 NMatT0=    0 NMatD0=    1 NMtDS0=    0 NMtDT0=    0
 Petite list used in FoFCou.
 Requested convergence on RMS density matrix=1.00D-08 within 400 cycles.
 Requested convergence on MAX density matrix=1.00D-06.
 Requested convergence on             energy=1.00D-06.
 No special actions if energy rises.
 Inv3:  Mode=1 IEnd=    10178892.
 Iteration    1 A*A^-1 deviation from unit magnitude is 4.44D-15 for    467.
 Iteration    1 A*A^-1 deviation from orthogonality  is 1.51D-15 for   1833   1831.
 Iteration    1 A^-1*A deviation from unit magnitude is 4.22D-15 for    467.
 Iteration    1 A^-1*A deviation from orthogonality  is 1.30D-15 for   1676    372.
 EnCoef did     1 forward-backward iterations
 EnCoef did     4 forward-backward iterations
 Error on total polarization charges =  0.01132
 SCF Done:  E(RM06L) =  -687.220151201     A.U. after   18 cycles
            NFock= 18  Conv=0.52D-08     -V/T= 2.0036
 SMD-CDS (non-electrostatic) energy       (kcal/mol) =      -4.54
 (included in total energy above)
 QCSCF skips out because SCF is already converged.

 **********************************************************************

            Population analysis using the SCF density.

 **********************************************************************

 Orbital symmetries:
       Occupied  (A) (A) (A) (A) (A) (A) (A) (A) (A) (A) (A) (A)
                 (A) (A) (A) (A) (A) (A) (A) (A) (A) (A) (A) (A)
                 (A) (A) (A) (A) (A) (A) (A) (A) (A) (A) (A) (A)
                 (A) (A) (A) (A) (A) (A) (A) (A) (A) (A) (A) (A)
       Virtual   (A) (A) (A) (A) (A) (A) (A) (A) (A) (A) (A) (A)
                 (A) (A) (A) (A) (A) (A) (A) (A) (A) (A) (A) (A)
                 (A) (A) (A) (A) (A) (A) (A) (A) (A) (A) (A) (A)
                 (A) (A) (A) (A) (A) (A) (A) (A) (A) (A) (A) (A)
                 (A) (A) (A) (A) (A) (A) (A) (A) (A) (A) (A) (A)
                 (A) (A) (A) (A) (A) (A) (A) (A) (A) (A) (A) (A)
                 (A) (A) (A) (A) (A) (A) (A) (A) (A) (A) (A) (A)
                 (A) (A) (A) (A) (A) (A) (A) (A) (A) (A) (A) (A)
                 (A) (A) (A) (A) (A) (A) (A) (A) (A) (A) (A) (A)
                 (A) (A) (A) (A) (A) (A) (A) (A) (A) (A) (A) (A)
                 (A) (A) (A) (A) (A) (A) (A) (A) (A) (A) (A) (A)
                 (A) (A) (A) (A) (A) (A) (A) (A) (A) (A) (A) (A)
                 (A) (A) (A) (A) (A) (A) (A) (A) (A) (A) (A) (A)
                 (A) (A) (A) (A) (A) (A) (A) (A) (A) (A) (A) (A)
                 (A) (A) (A) (A) (A) (A) (A) (A) (A) (A) (A) (A)
                 (A) (A) (A) (A) (A) (A) (A) (A) (A) (A) (A) (A)
                 (A) (A) (A) (A) (A) (A) (A) (A) (A) (A) (A) (A)
                 (A) (A) (A) (A) (A) (A) (A) (A) (A) (A) (A) (A)
                 (A) (A) (A) (A) (A) (A) (A) (A) (A) (A) (A) (A)
                 (A) (A) (A) (A) (A) (A) (A) (A) (A) (A) (A) (A)
                 (A) (A) (A) (A) (A) (A) (A) (A) (A) (A) (A) (A)
                 (A) (A) (A) (A) (A) (A) (A) (A) (A) (A) (A) (A)
                 (A) (A) (A) (A) (A) (A) (A) (A) (A) (A) (A) (A)
                 (A) (A) (A) (A) (A) (A) (A) (A) (A) (A) (A) (A)
 The electronic state is 1-A.
 Alpha  occ. eigenvalues --  -19.02683 -19.01857 -19.00311 -18.98482 -18.97518
 Alpha  occ. eigenvalues --  -18.88695 -10.15772 -10.14814 -10.12682 -10.11822
 Alpha  occ. eigenvalues --  -10.11789 -10.11493  -1.08417  -1.04556  -1.03804
 Alpha  occ. eigenvalues --   -1.01928  -1.00153  -0.92744  -0.78210  -0.74644
 Alpha  occ. eigenvalues --   -0.69826  -0.63713  -0.57744  -0.57517  -0.54035
 Alpha  occ. eigenvalues --   -0.53209  -0.51377  -0.48043  -0.47745  -0.44817
 Alpha  occ. eigenvalues --   -0.44485  -0.43059  -0.41467  -0.40958  -0.38316
 Alpha  occ. eigenvalues --   -0.36518  -0.36200  -0.35438  -0.33823  -0.33744
 Alpha  occ. eigenvalues --   -0.32105  -0.30408  -0.30230  -0.27631  -0.26647
 Alpha  occ. eigenvalues --   -0.24872  -0.19547  -0.17546
 Alpha virt. eigenvalues --   -0.04906  -0.02730  -0.01163   0.00906   0.01227
 Alpha virt. eigenvalues --    0.02484   0.03189   0.03992   0.04509   0.04795
 Alpha virt. eigenvalues --    0.05966   0.06236   0.06587   0.07730   0.09071
 Alpha virt. eigenvalues --    0.09465   0.10451   0.10953   0.11349   0.11657
 Alpha virt. eigenvalues --    0.12380   0.12838   0.13271   0.13732   0.14242
 Alpha virt. eigenvalues --    0.14532   0.15150   0.15572   0.15723   0.16382
 Alpha virt. eigenvalues --    0.16613   0.17191   0.17531   0.18247   0.18963
 Alpha virt. eigenvalues --    0.19576   0.19769   0.20426   0.21674   0.22232
 Alpha virt. eigenvalues --    0.22528   0.23727   0.23998   0.24483   0.24915
 Alpha virt. eigenvalues --    0.25681   0.26421   0.26748   0.28220   0.28522
 Alpha virt. eigenvalues --    0.29192   0.30479   0.30684   0.31681   0.32087
 Alpha virt. eigenvalues --    0.33146   0.33517   0.34125   0.34247   0.35364
 Alpha virt. eigenvalues --    0.35756   0.36125   0.36539   0.36766   0.37360
 Alpha virt. eigenvalues --    0.38363   0.39476   0.40086   0.41551   0.42730
 Alpha virt. eigenvalues --    0.43170   0.45656   0.46513   0.48261   0.48923
 Alpha virt. eigenvalues --    0.51513   0.51697   0.52430   0.53588   0.54039
 Alpha virt. eigenvalues --    0.56021   0.56698   0.57187   0.57992   0.59316
 Alpha virt. eigenvalues --    0.59669   0.62498   0.63739   0.64981   0.65674
 Alpha virt. eigenvalues --    0.66607   0.67331   0.68452   0.69576   0.70123
 Alpha virt. eigenvalues --    0.71517   0.72417   0.74101   0.75182   0.78398
 Alpha virt. eigenvalues --    0.79613   0.84059   0.86073   0.90030   0.91962
 Alpha virt. eigenvalues --    0.94517   0.95807   0.98993   0.99860   1.02299
 Alpha virt. eigenvalues --    1.03950   1.06910   1.07437   1.09084   1.09736
 Alpha virt. eigenvalues --    1.10560   1.13412   1.14847   1.15287   1.16207
 Alpha virt. eigenvalues --    1.17164   1.19446   1.20182   1.20800   1.21264
 Alpha virt. eigenvalues --    1.22144   1.25081   1.26931   1.27092   1.27489
 Alpha virt. eigenvalues --    1.30692   1.31293   1.34941   1.36421   1.40472
 Alpha virt. eigenvalues --    1.41500   1.43182   1.44282   1.45168   1.48039
 Alpha virt. eigenvalues --    1.49539   1.50478   1.52158   1.53542   1.53904
 Alpha virt. eigenvalues --    1.55475   1.57900   1.58767   1.60114   1.60922
 Alpha virt. eigenvalues --    1.61693   1.63311   1.66336   1.66693   1.68019
 Alpha virt. eigenvalues --    1.69791   1.70917   1.72691   1.74217   1.75178
 Alpha virt. eigenvalues --    1.77341   1.80403   1.80798   1.82072   1.84941
 Alpha virt. eigenvalues --    1.85506   1.87440   1.89624   1.91697   1.92899
 Alpha virt. eigenvalues --    1.97305   2.00476   2.02346   2.03436   2.04583
 Alpha virt. eigenvalues --    2.05297   2.06638   2.07649   2.08619   2.12119
 Alpha virt. eigenvalues --    2.13558   2.16226   2.17962   2.20736   2.22290
 Alpha virt. eigenvalues --    2.27017   2.27608   2.31976   2.32581   2.33538
 Alpha virt. eigenvalues --    2.34425   2.40414   2.44156   2.44488   2.49491
 Alpha virt. eigenvalues --    2.52170   2.55939   2.61755   2.63673   2.65822
 Alpha virt. eigenvalues --    2.67130   2.69138   2.70885   2.72032   2.75782
 Alpha virt. eigenvalues --    2.79590   2.80303   2.85520   2.86945   2.88696
 Alpha virt. eigenvalues --    2.92368   2.95398   2.95804   2.97607   3.01403
 Alpha virt. eigenvalues --    3.02636   3.03132   3.06301   3.08050   3.09939
 Alpha virt. eigenvalues --    3.11031   3.13032   3.14380   3.15585   3.16513
 Alpha virt. eigenvalues --    3.19657   3.20160   3.20642   3.23216   3.24585
 Alpha virt. eigenvalues --    3.28850   3.31580   3.32755   3.33611   3.35190
 Alpha virt. eigenvalues --    3.38977   3.39779   3.43620   3.53071   3.57099
 Alpha virt. eigenvalues --    3.60887   3.79369   3.82999   3.85383   3.87948
 Alpha virt. eigenvalues --    3.90006   3.93254   3.97097   3.99446   4.02405
 Alpha virt. eigenvalues --    4.04769   4.05714   4.08588   4.20333   4.22665
 Alpha virt. eigenvalues --    4.25115   4.33900   4.37956   5.12810   5.13921
 Alpha virt. eigenvalues --    5.20219   5.23972   5.24494   5.25606   5.29981
 Alpha virt. eigenvalues --    5.45932   5.51168   5.51413   5.51790   5.53884
 Alpha virt. eigenvalues --    5.72877   5.74258   5.78055   5.79848   5.81808
 Alpha virt. eigenvalues --    5.95484  23.82744  23.90195  23.92721  23.93583
 Alpha virt. eigenvalues --   23.96610  24.08870  50.16105  50.17100  50.18374
 Alpha virt. eigenvalues --   50.19841  50.24886  50.28858
          Condensed to atoms (all electrons):
               1          2          3          4          5          6
     1  O    8.318288   0.388491  -0.029359   0.024847  -0.327491  -0.038152
     2  C    0.388491   7.118018   0.433525  -0.195239  -1.521171  -0.132242
     3  H   -0.029359   0.433525   0.621504   0.006183  -0.269291  -0.032450
     4  O    0.024847  -0.195239   0.006183   7.749026   0.358097  -0.073955
     5  C   -0.327491  -1.521171  -0.269291   0.358097  14.990056   0.253587
     6  H   -0.038152  -0.132242  -0.032450  -0.073955   0.253587   0.713758
     7  C    0.161035  -0.786804   0.104306   0.090554  -6.427909   0.245916
     8  H   -0.000771   0.065421  -0.001478   0.011255  -0.185523  -0.012436
     9  C    0.000294   0.149764   0.033155  -0.100633   0.397479  -0.047155
    10  H   -0.000011   0.003111  -0.000693   0.004382  -0.098950   0.000240
    11  C    0.003103   0.098968   0.005375   0.031676  -0.666176   0.000952
    12  H   -0.000006  -0.000976  -0.000006  -0.000225   0.000226  -0.000005
    13  C    0.000427   0.015512  -0.000018   0.002045  -0.285669   0.003034
    14  H   -0.000000  -0.000184  -0.000001   0.000001   0.006279  -0.000001
    15  H    0.000009  -0.000182  -0.000003  -0.000061   0.002997   0.000109
    16  O   -0.000027  -0.002915  -0.000715  -0.000342   0.022428   0.000133
    17  H    0.000001  -0.001294   0.000011  -0.000005  -0.003380   0.000007
    18  O    0.000034  -0.003107  -0.000040  -0.000124  -0.005540   0.000120
    19  H   -0.000018   0.000847  -0.000022   0.000021   0.006805  -0.000013
    20  O   -0.002214   0.087128  -0.004308   0.001429  -0.019799  -0.009658
    21  H    0.000355  -0.019335  -0.002532  -0.000554  -0.020964   0.001658
    22  O   -0.002314   0.109924  -0.000597  -0.000644  -0.214489  -0.027256
    23  H    0.000068  -0.009850  -0.000017  -0.003164   0.043576   0.003698
    24  H    0.000476   0.110620   0.000121   0.248948  -0.005374   0.000640
               7          8          9         10         11         12
     1  O    0.161035  -0.000771   0.000294  -0.000011   0.003103  -0.000006
     2  C   -0.786804   0.065421   0.149764   0.003111   0.098968  -0.000976
     3  H    0.104306  -0.001478   0.033155  -0.000693   0.005375  -0.000006
     4  O    0.090554   0.011255  -0.100633   0.004382   0.031676  -0.000225
     5  C   -6.427909  -0.185523   0.397479  -0.098950  -0.666176   0.000226
     6  H    0.245916  -0.012436  -0.047155   0.000240   0.000952  -0.000005
     7  C   14.187707   0.372859  -2.241587   0.059504   0.770195   0.013086
     8  H    0.372859   0.552086   0.003412   0.004675   0.003020  -0.000999
     9  C   -2.241587   0.003412   8.826695   0.363457  -1.848055  -0.017441
    10  H    0.059504   0.004675   0.363457   0.510156  -0.005618  -0.005386
    11  C    0.770195   0.003020  -1.848055  -0.005618   7.778603   0.298043
    12  H    0.013086  -0.000999  -0.017441  -0.005386   0.298043   0.560808
    13  C    0.019371   0.038837   0.319215   0.027195  -0.409158   0.015412
    14  H   -0.008087   0.000165   0.059538  -0.000221  -0.083305  -0.005350
    15  H    0.051946  -0.007085  -0.072500  -0.000529   0.040967  -0.002867
    16  O   -0.076452  -0.004687   0.080322  -0.001245  -0.165028   0.017742
    17  H    0.005239  -0.000029  -0.005796   0.000127  -0.022588   0.000918
    18  O    0.068958  -0.002246  -0.209958  -0.000962   0.474044  -0.052270
    19  H    0.015407   0.000125  -0.032113  -0.000906   0.004700   0.006788
    20  O   -0.306210   0.008043   0.367461  -0.050761  -0.131025   0.013112
    21  H    0.085336  -0.004828  -0.001392   0.006307  -0.016678  -0.002505
    22  O    0.048300  -0.016135  -0.062291   0.005388   0.067650  -0.003757
    23  H    0.042275  -0.011841  -0.016489  -0.000073   0.000293  -0.000380
    24  H   -0.090762   0.000886  -0.025502   0.000418   0.013012  -0.000133
              13         14         15         16         17         18
     1  O    0.000427  -0.000000   0.000009  -0.000027   0.000001   0.000034
     2  C    0.015512  -0.000184  -0.000182  -0.002915  -0.001294  -0.003107
     3  H   -0.000018  -0.000001  -0.000003  -0.000715   0.000011  -0.000040
     4  O    0.002045   0.000001  -0.000061  -0.000342  -0.000005  -0.000124
     5  C   -0.285669   0.006279   0.002997   0.022428  -0.003380  -0.005540
     6  H    0.003034  -0.000001   0.000109   0.000133   0.000007   0.000120
     7  C    0.019371  -0.008087   0.051946  -0.076452   0.005239   0.068958
     8  H    0.038837   0.000165  -0.007085  -0.004687  -0.000029  -0.002246
     9  C    0.319215   0.059538  -0.072500   0.080322  -0.005796  -0.209958
    10  H    0.027195  -0.000221  -0.000529  -0.001245   0.000127  -0.000962
    11  C   -0.409158  -0.083305   0.040967  -0.165028  -0.022588   0.474044
    12  H    0.015412  -0.005350  -0.002867   0.017742   0.000918  -0.052270
    13  C    5.620442   0.426596   0.337390   0.131198   0.050146  -0.200067
    14  H    0.426596   0.538332  -0.040761  -0.043558  -0.007454  -0.009679
    15  H    0.337390  -0.040761   0.615422  -0.058844   0.001365   0.012220
    16  O    0.131198  -0.043558  -0.058844   8.302649   0.226703   0.006063
    17  H    0.050146  -0.007454   0.001365   0.226703   0.428915   0.001610
    18  O   -0.200067  -0.009679   0.012220   0.006063   0.001610   7.974120
    19  H    0.006506  -0.000736  -0.001004   0.006060   0.000929   0.249539
    20  O    0.010171  -0.000711  -0.001417   0.024833   0.001696  -0.017348
    21  H    0.036177  -0.000761  -0.001382  -0.029365   0.004221  -0.004774
    22  O   -0.039581   0.000351  -0.003425   0.000560  -0.000037  -0.003006
    23  H   -0.002200   0.000072  -0.000326   0.000567  -0.000015   0.000140
    24  H   -0.001364  -0.000001   0.000028  -0.000018   0.000000   0.000012
              19         20         21         22         23         24
     1  O   -0.000018  -0.002214   0.000355  -0.002314   0.000068   0.000476
     2  C    0.000847   0.087128  -0.019335   0.109924  -0.009850   0.110620
     3  H   -0.000022  -0.004308  -0.002532  -0.000597  -0.000017   0.000121
     4  O    0.000021   0.001429  -0.000554  -0.000644  -0.003164   0.248948
     5  C    0.006805  -0.019799  -0.020964  -0.214489   0.043576  -0.005374
     6  H   -0.000013  -0.009658   0.001658  -0.027256   0.003698   0.000640
     7  C    0.015407  -0.306210   0.085336   0.048300   0.042275  -0.090762
     8  H    0.000125   0.008043  -0.004828  -0.016135  -0.011841   0.000886
     9  C   -0.032113   0.367461  -0.001392  -0.062291  -0.016489  -0.025502
    10  H   -0.000906  -0.050761   0.006307   0.005388  -0.000073   0.000418
    11  C    0.004700  -0.131025  -0.016678   0.067650   0.000293   0.013012
    12  H    0.006788   0.013112  -0.002505  -0.003757  -0.000380  -0.000133
    13  C    0.006506   0.010171   0.036177  -0.039581  -0.002200  -0.001364
    14  H   -0.000736  -0.000711  -0.000761   0.000351   0.000072  -0.000001
    15  H   -0.001004  -0.001417  -0.001382  -0.003425  -0.000326   0.000028
    16  O    0.006060   0.024833  -0.029365   0.000560   0.000567  -0.000018
    17  H    0.000929   0.001696   0.004221  -0.000037  -0.000015   0.000000
    18  O    0.249539  -0.017348  -0.004774  -0.003006   0.000140   0.000012
    19  H    0.438017   0.042800  -0.008179  -0.000065   0.000008  -0.000007
    20  O    0.042800   8.019888   0.253138   0.024926  -0.001846  -0.000440
    21  H   -0.008179   0.253138   0.408274  -0.002039   0.000260   0.000097
    22  O   -0.000065   0.024926  -0.002039   8.181735   0.239871   0.033126
    23  H    0.000008  -0.001846   0.000260   0.239871   0.406416  -0.005606
    24  H   -0.000007  -0.000440   0.000097   0.033126  -0.005606   0.420184
 Mulliken charges:
               1
     1  O   -0.497066
     2  C    0.091973
     3  H    0.137349
     4  O   -0.153518
     5  C   -0.029803
     6  H    0.149470
     7  C   -0.404183
     8  H    0.187272
     9  C    0.080122
    10  H    0.180394
    11  C   -0.242969
    12  H    0.166173
    13  C   -0.121616
    14  H    0.169477
    15  H    0.127933
    16  O   -0.436064
    17  H    0.318709
    18  O   -0.277739
    19  H    0.264509
    20  O   -0.308889
    21  H    0.319464
    22  O   -0.336196
    23  H    0.314562
    24  H    0.300636
 Sum of Mulliken charges =  -0.00000
 Mulliken charges with hydrogens summed into heavy atoms:
               1
     1  O   -0.497066
     2  C    0.378791
     4  O    0.147118
     5  C   -0.029803
     7  C   -0.216911
     9  C    0.260516
    11  C   -0.076796
    13  C    0.175795
    16  O   -0.117355
    18  O   -0.013230
    20  O    0.010575
    22  O   -0.021634
 Electronic spatial extent (au):  <R**2>=           2399.3989
 Charge=             -0.0000 electrons
 Dipole moment (field-independent basis, Debye):
    X=              7.6435    Y=              4.1241    Z=              6.2643  Tot=             10.7085
 Quadrupole moment (field-independent basis, Debye-Ang):
   XX=           -103.2887   YY=            -68.0644   ZZ=            -65.4902
   XY=            -14.2463   XZ=              4.5978   YZ=              0.2570
 Traceless Quadrupole moment (field-independent basis, Debye-Ang):
   XX=            -24.3410   YY=             10.8834   ZZ=             13.4576
   XY=            -14.2463   XZ=              4.5978   YZ=              0.2570
 Octapole moment (field-independent basis, Debye-Ang**2):
  XXX=            163.3268  YYY=             14.9978  ZZZ=             21.2538  XYY=             13.2610
  XXY=             36.7248  XXZ=             47.5037  XZZ=              6.2995  YZZ=              2.1409
  YYZ=             10.5048  XYZ=             -2.3463
 Hexadecapole moment (field-independent basis, Debye-Ang**3):
 XXXX=          -2674.4718 YYYY=           -468.0860 ZZZZ=           -333.0974 XXXY=           -212.4288
 XXXZ=             86.3288 YYYX=            -77.5894 YYYZ=              5.3772 ZZZX=             51.6291
 ZZZY=              0.1060 XXYY=           -440.3632 XXZZ=           -380.2650 YYZZ=           -117.0294
 XXYZ=             -9.9807 YYXZ=             -1.1486 ZZXY=            -36.5672
 N-N= 8.071067507463D+02 E-N=-3.227583328019D+03  KE= 6.847862803666D+02
 1\1\GINC-N2465\SP\RM06L\6-311+G(d,p)\C6H12O6\YKIM\09-Sep-2018\0\\# m06
 l/6-311+g(d,p) scf=(xqc,maxconventionalcycles=400) scrf=(smd,solvent=1
 ,4-dioxane) temperature=443.15\\Title Card Required\\0,1\O,0,1.403132,
 0.016068,1.459491\C,0,0.168204,-0.350944,1.28638\H,0,-0.449788,-0.5767
 88,2.159192\O,0,0.297395,0.314909,-0.907603\C,0,-0.482297,-0.173586,0.
 042101\H,0,0.108597,-1.415464,0.600157\C,0,-1.899101,-0.501773,-0.3411
 24\H,0,-2.250437,-1.371504,0.226387\C,0,-2.808026,0.697743,-0.012454\H
 ,0,-2.377212,1.608286,-0.444039\C,0,-4.231396,0.5362,-0.568705\H,0,-4.
 192501,0.61714,-1.659242\C,0,-4.85855,-0.805461,-0.237056\H,0,-5.92254
 9,-0.769666,-0.492904\H,0,-4.39457,-1.601252,-0.837805\O,0,-4.673181,-
 1.062295,1.158922\H,0,-5.267266,-1.76358,1.439387\O,0,-5.017138,1.6182
 36,-0.112469\H,0,-4.787366,1.766602,0.813789\O,0,-2.814111,0.900149,1.
 387862\H,0,-3.343204,0.180244,1.767301\O,0,-1.923743,-0.729644,-1.7448
 52\H,0,-1.782208,-1.668101,-1.91915\H,0,-0.104075,0.123359,-1.781271\\
 Version=ES64L-G16RevA.03\State=1-A\HF=-687.2201512\RMSD=5.171e-09\Dipo
 le=-3.0419579,-2.5292943,-1.4487915\Quadrupole=-16.344637,9.7851893,6.
 5594477,3.1263443,-12.5426856,0.6261011\PG=C01 [X(C6H12O6)]\\@


 IF AT FIRST YOU DON'T SUCCEED, TRY LOOKING IN 
 THE WASTEBASKET FOR THE DIRECTIONS.
 Job cpu time:       0 days  0 hours 25 minutes  5.4 seconds.
 Elapsed time:       0 days  0 hours  1 minutes  3.6 seconds.
 File lengths (MBytes):  RWF=    120 Int=      0 D2E=      0 Chk=      8 Scr=      1
 Normal termination of Gaussian 16 at Sun Sep  9 22:52:03 2018.
