 Entering Gaussian System, Link 0=g16
 Initial command:
 /nopt/nrel/apps/gaussian/G16.sandy/g16/l1.exe "/scratch/ykim/gaussianScratch.5606394/Gau-25770.inp" -scrdir="/scratch/ykim/gaussianScratch.5606394/"
 Default linda workers: n2468
 Default is to use  24 SMP processors on each worker.
 Entering Link 1 = /nopt/nrel/apps/gaussian/G16.sandy/g16/l1.exe PID=     25771.
  
 Copyright (c) 1988,1990,1992,1993,1995,1998,2003,2009,2016,
            Gaussian, Inc.  All Rights Reserved.
  
 This is part of the Gaussian(R) 16 program.  It is based on
 the Gaussian(R) 09 system (copyright 2009, Gaussian, Inc.),
 the Gaussian(R) 03 system (copyright 2003, Gaussian, Inc.),
 the Gaussian(R) 98 system (copyright 1998, Gaussian, Inc.),
 the Gaussian(R) 94 system (copyright 1995, Gaussian, Inc.),
 the Gaussian 92(TM) system (copyright 1992, Gaussian, Inc.),
 the Gaussian 90(TM) system (copyright 1990, Gaussian, Inc.),
 the Gaussian 88(TM) system (copyright 1988, Gaussian, Inc.),
 the Gaussian 86(TM) system (copyright 1986, Carnegie Mellon
 University), and the Gaussian 82(TM) system (copyright 1983,
 Carnegie Mellon University). Gaussian is a federally registered
 trademark of Gaussian, Inc.
  
 This software contains proprietary and confidential information,
 including trade secrets, belonging to Gaussian, Inc.
  
 This software is provided under written license and may be
 used, copied, transmitted, or stored only in accord with that
 written license.
  
 The following legend is applicable only to US Government
 contracts under FAR:
  
                    RESTRICTED RIGHTS LEGEND
  
 Use, reproduction and disclosure by the US Government is
 subject to restrictions as set forth in subparagraphs (a)
 and (c) of the Commercial Computer Software - Restricted
 Rights clause in FAR 52.227-19.
  
 Gaussian, Inc.
 340 Quinnipiac St., Bldg. 40, Wallingford CT 06492
  
  
 ---------------------------------------------------------------
 Warning -- This program may not be used in any manner that
 competes with the business of Gaussian, Inc. or will provide
 assistance to any competitor of Gaussian, Inc.  The licensee
 of this program is prohibited from giving any competitor of
 Gaussian, Inc. access to this program.  By using this program,
 the user acknowledges that Gaussian, Inc. is engaged in the
 business of creating and licensing software in the field of
 computational chemistry and represents and warrants to the
 licensee that it is not a competitor of Gaussian, Inc. and that
 it will not use this program in any manner prohibited above.
 ---------------------------------------------------------------
  

 Cite this work as:
 Gaussian 16, Revision A.03,
 M. J. Frisch, G. W. Trucks, H. B. Schlegel, G. E. Scuseria, 
 M. A. Robb, J. R. Cheeseman, G. Scalmani, V. Barone, 
 G. A. Petersson, H. Nakatsuji, X. Li, M. Caricato, A. V. Marenich, 
 J. Bloino, B. G. Janesko, R. Gomperts, B. Mennucci, H. P. Hratchian, 
 J. V. Ortiz, A. F. Izmaylov, J. L. Sonnenberg, D. Williams-Young, 
 F. Ding, F. Lipparini, F. Egidi, J. Goings, B. Peng, A. Petrone, 
 T. Henderson, D. Ranasinghe, V. G. Zakrzewski, J. Gao, N. Rega, 
 G. Zheng, W. Liang, M. Hada, M. Ehara, K. Toyota, R. Fukuda, 
 J. Hasegawa, M. Ishida, T. Nakajima, Y. Honda, O. Kitao, H. Nakai, 
 T. Vreven, K. Throssell, J. A. Montgomery, Jr., J. E. Peralta, 
 F. Ogliaro, M. J. Bearpark, J. J. Heyd, E. N. Brothers, K. N. Kudin, 
 V. N. Staroverov, T. A. Keith, R. Kobayashi, J. Normand, 
 K. Raghavachari, A. P. Rendell, J. C. Burant, S. S. Iyengar, 
 J. Tomasi, M. Cossi, J. M. Millam, M. Klene, C. Adamo, R. Cammi, 
 J. W. Ochterski, R. L. Martin, K. Morokuma, O. Farkas, 
 J. B. Foresman, and D. J. Fox, Gaussian, Inc., Wallingford CT, 2016.
 
 ******************************************
 Gaussian 16:  ES64L-G16RevA.03 25-Dec-2016
                 9-Sep-2018 
 ******************************************
 %chk=Cu2_TS_sugar_2_M06L.chk
 %nprocshared=24
 Will use up to   24 processors via shared memory.
 %mem=24GB
 SetLPE:    new flags="-opt 'Tsnet.Node.lindarsharg: ssh'  -nodelist 'n2468.hpc.nrel.gov' -env GAUSS_MDEF=3221225472 -env GAUSS_EXEDIR="/nopt/nrel/apps/gaussian/G16.sandy/g16/bsd:/nopt/nrel/apps/gaussian/G16.sandy/g16/local:/nopt/nrel/apps/gaussian/G16.sandy/g16/extras:/nopt/nrel/apps/gaussian/G16.sandy/g16""
 Will use up to    1 processors via Linda.
 Default route: CacheSize=327680 MaxDisk=128GB
 ----------------------------------------------------------------------
 # m06l/6-311+g(d,p) scf=(xqc,maxconventionalcycles=400) scrf=(smd,solv
 ent=1,4-dioxane) temperature=443.15
 ----------------------------------------------------------------------
 1/4=327680,38=1,112=443150,172=1/1;
 2/4=327680,12=2,17=6,18=5,40=1/2;
 3/4=327680,5=4,6=6,7=111,11=2,25=1,30=1,70=32201,72=31,74=-53/1,2,3;
 4/4=327680/1;
 5/4=327680,5=2,8=3,13=1,38=5,53=31,85=400/2,8;
 6/4=327680,7=2,8=2,9=2,10=2,28=1/1;
 99/4=327680,5=1,9=1/99;
 -------------------
 Title Card Required
 -------------------
 Symbolic Z-matrix:
 Charge =  0 Multiplicity = 1
 O                    -1.44345  -1.00208   1.16743 
 C                    -0.27486  -0.46388   1.10136 
 H                     0.3896   -0.51711   1.97444 
 O                    -0.32683  -0.07135  -1.21517 
 C                     0.34919  -0.00979  -0.09037 
 H                    -0.34019   0.80041   0.91313 
 C                     1.7374    0.57217  -0.14812 
 H                     2.0227    0.94615   0.8437 
 C                     2.73217  -0.51443  -0.58763 
 H                     2.4034   -0.92109  -1.55147 
 C                     4.15986   0.02173  -0.77022 
 H                     4.17293   0.69489  -1.63284 
 C                     4.66757   0.81023   0.42293 
 H                     5.73949   0.99274   0.29323 
 H                     4.16401   1.78672   0.47596 
 O                     4.41718   0.05305   1.61125 
 H                     4.9239    0.42168   2.33957 
 O                     5.0109   -1.06205  -1.09012 
 H                     4.74825  -1.80022  -0.52522 
 O                     2.69719  -1.60151   0.31847 
 H                     3.13139  -1.29793   1.13104 
 O                     1.76377   1.59117  -1.13992 
 H                     1.40671   2.40647  -0.76677 
 H                     0.0777    0.55222  -1.84824 
 
                          Input orientation:                          
 ---------------------------------------------------------------------
 Center     Atomic      Atomic             Coordinates (Angstroms)
 Number     Number       Type             X           Y           Z
 ---------------------------------------------------------------------
      1          8           0       -1.443453   -1.002083    1.167430
      2          6           0       -0.274862   -0.463882    1.101355
      3          1           0        0.389602   -0.517113    1.974439
      4          8           0       -0.326826   -0.071353   -1.215173
      5          6           0        0.349194   -0.009787   -0.090367
      6          1           0       -0.340189    0.800406    0.913128
      7          6           0        1.737403    0.572167   -0.148121
      8          1           0        2.022696    0.946150    0.843697
      9          6           0        2.732169   -0.514427   -0.587627
     10          1           0        2.403396   -0.921088   -1.551465
     11          6           0        4.159855    0.021728   -0.770223
     12          1           0        4.172930    0.694889   -1.632836
     13          6           0        4.667570    0.810231    0.422929
     14          1           0        5.739490    0.992742    0.293234
     15          1           0        4.164007    1.786722    0.475964
     16          8           0        4.417178    0.053051    1.611245
     17          1           0        4.923897    0.421678    2.339573
     18          8           0        5.010903   -1.062051   -1.090119
     19          1           0        4.748252   -1.800218   -0.525223
     20          8           0        2.697189   -1.601511    0.318472
     21          1           0        3.131390   -1.297934    1.131041
     22          8           0        1.763774    1.591174   -1.139916
     23          1           0        1.406713    2.406467   -0.766773
     24          1           0        0.077700    0.552218   -1.848239
 ---------------------------------------------------------------------
                    Distance matrix (angstroms):
                    1          2          3          4          5
     1  O    0.000000
     2  C    1.288267   0.000000
     3  H    2.060716   1.098463   0.000000
     4  O    2.791041   2.350124   3.299333   0.000000
     5  C    2.404223   1.419806   2.126602   1.313766   0.000000
     6  H    2.128574   1.279891   1.842507   2.299958   1.462417
     7  C    3.785074   2.585304   2.740139   2.411174   1.506363
     8  H    3.989311   2.708016   2.467126   3.285500   2.141705
     9  C    4.555640   3.449268   3.471572   3.153978   2.486061
    10  H    4.711390   3.797309   4.080510   2.879106   2.680489
    11  C    6.016623   4.837906   4.694500   4.509651   3.870960
    12  H    6.501151   5.348028   5.366093   4.583598   4.182910
    13  C    6.417427   5.148909   4.740257   5.329593   4.425412
    14  H    7.505879   6.240773   5.807531   6.340960   5.496135
    15  H    6.300727   5.015964   4.668963   5.145869   4.254524
    16  O    5.971371   4.747889   4.083915   5.523558   4.409980
    17  H    6.629039   5.417056   4.644834   6.359984   5.197949
    18  O    6.838043   5.753232   5.571795   5.430329   4.882448
    19  H    6.468331   5.446396   5.185798   5.405684   4.769324
    20  O    4.269070   3.277223   3.040247   3.719962   2.865975
    21  H    4.584544   3.507004   2.972945   4.355282   3.300269
    22  O    4.726006   3.660954   4.004052   2.672128   2.380266
    23  H    4.845906   3.815298   4.134740   3.057092   2.722895
    24  H    3.718066   3.139564   3.981660   0.976348   1.865388
                    6          7          8          9         10
     6  H    0.000000
     7  C    2.344084   0.000000
     8  H    2.368393   1.097706   0.000000
     9  C    3.663391   1.537339   2.164561   0.000000
    10  H    4.070015   2.154700   3.060770   1.096562   0.000000
    11  C    4.867279   2.560911   2.833151   1.535933   2.141119
    12  H    5.182790   2.855036   3.289355   2.151906   2.397760
    13  C    5.031704   2.994771   2.681581   2.553766   3.467302
    14  H    6.114226   4.048256   3.757624   3.477277   4.265581
    15  H    4.631599   2.784427   2.329593   2.911473   3.813457
    16  O    4.866051   3.247467   2.668389   2.827777   3.873887
    17  H    5.467063   4.045369   3.306007   3.774714   4.826606
    18  O    6.009653   3.778072   4.086795   2.396877   2.651755
    19  H    5.892735   3.851705   4.104282   2.392017   2.706361
    20  O    3.917714   2.421523   2.687262   1.415624   2.011456
    21  H    4.062312   2.660213   2.519461   1.930565   2.804965
    22  O    3.044169   1.422226   2.101860   2.382513   2.624871
    23  H    2.907433   1.963859   2.259552   3.212561   3.561143
    24  H    2.803815   2.376008   3.344355   3.126193   2.769037
                   11         12         13         14         15
    11  C    0.000000
    12  H    1.094266   0.000000
    13  C    1.517604   2.117579   0.000000
    14  H    2.137535   2.500514   1.095054   0.000000
    15  H    2.160602   2.374703   1.099965   1.773680   0.000000
    16  O    2.395535   3.315973   1.431123   2.090139   2.087720
    17  H    3.227158   4.051991   1.972359   2.275700   2.431834
    18  O    1.414635   2.020787   2.431590   2.581991   3.359368
    19  H    1.930213   2.789868   2.778479   3.074581   3.769596
    20  O    2.441220   3.355424   3.116057   3.998297   3.695468
    21  H    2.532598   3.563028   2.702893   3.570897   3.318211
    22  O    2.888085   2.617313   3.388862   4.268297   2.900073
    23  H    3.642360   3.366232   3.820543   4.679230   3.087256
    24  H    4.255294   4.103372   5.127541   6.069253   4.860435
                   16         17         18         19         20
    16  O    0.000000
    17  H    0.960787   0.000000
    18  O    2.982169   3.737888   0.000000
    19  H    2.847580   3.629701   0.965911   0.000000
    20  O    2.714259   3.624413   2.761959   2.226694   0.000000
    21  H    1.925878   2.762372   2.919206   2.368489   0.970030
    22  O    4.120105   4.843650   4.193558   4.559221   3.631996
    23  H    4.500715   5.095032   5.012520   5.377772   4.348215
    24  H    5.572097   6.406281   5.245675   5.394292   4.024290
                   21         22         23         24
    21  H    0.000000
    22  O    3.921041   0.000000
    23  H    4.505418   0.965107   0.000000
    24  H    4.650182   2.103330   2.524695   0.000000
 Stoichiometry    C6H12O6
 Framework group  C1[X(C6H12O6)]
 Deg. of freedom    66
 Full point group                 C1      NOp   1
 Largest Abelian subgroup         C1      NOp   1
 Largest concise Abelian subgroup C1      NOp   1
                         Standard orientation:                         
 ---------------------------------------------------------------------
 Center     Atomic      Atomic             Coordinates (Angstroms)
 Number     Number       Type             X           Y           Z
 ---------------------------------------------------------------------
      1          8           0        3.715765   -1.253037    0.111324
      2          6           0        2.527867   -0.978922   -0.305078
      3          1           0        1.911761   -1.781318   -0.733093
      4          8           0        2.446338    1.180082    0.619658
      5          6           0        1.827894    0.227832   -0.041196
      6          1           0        2.540747   -0.133499   -1.265919
      7          6           0        0.419758    0.505035   -0.498841
      8          1           0        0.173877   -0.142584   -1.350364
      9          6           0       -0.559331    0.224868    0.652811
     10          1           0       -0.267502    0.834036    1.516640
     11          6           0       -2.011804    0.579616    0.301292
     12          1           0       -2.092265    1.666452    0.202647
     13          6           0       -2.483188   -0.026595   -1.007688
     14          1           0       -3.565929    0.114594   -1.090652
     15          1           0       -2.010707    0.487928   -1.857364
     16          8           0       -2.146140   -1.417444   -1.014874
     17          1           0       -2.626512   -1.860581   -1.719135
     18          8           0       -2.841339    0.209504    1.385765
     19          1           0       -2.525037   -0.647251    1.700260
     20          8           0       -0.440818   -1.120860    1.075848
     21          1           0       -0.842251   -1.665357    0.380626
     22          8           0        0.307683    1.886395   -0.818237
     23          1           0        0.655976    2.036142   -1.705761
     24          1           0        1.988754    2.023309    0.438446
 ---------------------------------------------------------------------
 Rotational constants (GHZ):           1.5582624           0.5351511           0.4963734
 Standard basis: 6-311+G(d,p) (5D, 7F)
 There are   348 symmetry adapted cartesian basis functions of A   symmetry.
 There are   336 symmetry adapted basis functions of A   symmetry.
   336 basis functions,   528 primitive gaussians,   348 cartesian basis functions
    48 alpha electrons       48 beta electrons
       nuclear repulsion energy       807.0772287467 Hartrees.
 NAtoms=   24 NActive=   24 NUniq=   24 SFac= 1.00D+00 NAtFMM=   60 NAOKFM=F Big=F
 Integral buffers will be    131072 words long.
 Raffenetti 2 integral format.
 Two-electron integral symmetry is turned on.
 ------------------------------------------------------------------------------
 Polarizable Continuum Model (PCM)
 =================================
 Model                : PCM.
 Atomic radii         : SMD-Coulomb.
 Polarization charges : Total charges.
 Charge compensation  : None.
 Solution method      : On-the-fly selection.
 Cavity type          : VdW (van der Waals Surface) (Alpha=1.000).
 Cavity algorithm     : GePol (No added spheres)
                        Default sphere list used, NSphG=   24.
                        Lebedev-Laikov grids with approx.  5.0 points / Ang**2.
                        Smoothing algorithm: York/Karplus (Gamma=1.0000).
                        Polarization charges: spherical gaussians, with
                                              point-specific exponents (IZeta= 3).
                        Self-potential: point-specific (ISelfS= 7).
                        Self-field    : sphere-specific E.n sum rule (ISelfD= 2).
 Solvent              : 1,4-Dioxane, Eps=   2.209900 Eps(inf)=   2.023222
 ------------------------------------------------------------------------------
 ------------------------------------------------------------------------------
 Atomic radii for non-electrostatic terms: SMD-CDS.
 ------------------------------------------------------------------------------
 Nuclear repulsion after PCM non-electrostatic terms =      807.0697991462 Hartrees.
 One-electron integrals computed using PRISM.
 NBasis=   336 RedAO= T EigKep=  8.28D-06  NBF=   336
 NBsUse=   336 1.00D-06 EigRej= -1.00D+00 NBFU=   336
 ExpMin= 4.38D-02 ExpMax= 8.59D+03 ExpMxC= 1.30D+03 IAcc=3 IRadAn=         5 AccDes= 0.00D+00
 Harris functional with IExCor= 1009 and IRadAn=       5 diagonalized for initial guess.
 HarFok:  IExCor= 1009 AccDes= 0.00D+00 IRadAn=         5 IDoV= 1 UseB2=F ITyADJ=14
 ICtDFT=  3500011 ScaDFX=  1.000000  1.000000  1.000000  1.000000
 FoFCou: FMM=F IPFlag=           0 FMFlag=      100000 FMFlg1=           0
         NFxFlg=           0 DoJE=T BraDBF=F KetDBF=T FulRan=T
         wScrn=  0.000000 ICntrl=       500 IOpCl=  0 I1Cent=   200000004 NGrid=           0
         NMat0=    1 NMatS0=      1 NMatT0=    0 NMatD0=    1 NMtDS0=    0 NMtDT0=    0
 Petite list used in FoFCou.
 Requested convergence on RMS density matrix=1.00D-08 within 400 cycles.
 Requested convergence on MAX density matrix=1.00D-06.
 Requested convergence on             energy=1.00D-06.
 No special actions if energy rises.
 Inv3:  Mode=1 IEnd=    10356492.
 Iteration    1 A*A^-1 deviation from unit magnitude is 7.33D-15 for   1857.
 Iteration    1 A*A^-1 deviation from orthogonality  is 2.51D-15 for   1840   1838.
 Iteration    1 A^-1*A deviation from unit magnitude is 6.66D-15 for   1857.
 Iteration    1 A^-1*A deviation from orthogonality  is 2.09D-15 for   1840   1838.
 EnCoef did     1 forward-backward iterations
 EnCoef did     4 forward-backward iterations
 Error on total polarization charges =  0.01089
 SCF Done:  E(RM06L) =  -687.227032376     A.U. after   18 cycles
            NFock= 18  Conv=0.35D-08     -V/T= 2.0036
 SMD-CDS (non-electrostatic) energy       (kcal/mol) =      -4.66
 (included in total energy above)
 QCSCF skips out because SCF is already converged.

 **********************************************************************

            Population analysis using the SCF density.

 **********************************************************************

 Orbital symmetries:
       Occupied  (A) (A) (A) (A) (A) (A) (A) (A) (A) (A) (A) (A)
                 (A) (A) (A) (A) (A) (A) (A) (A) (A) (A) (A) (A)
                 (A) (A) (A) (A) (A) (A) (A) (A) (A) (A) (A) (A)
                 (A) (A) (A) (A) (A) (A) (A) (A) (A) (A) (A) (A)
       Virtual   (A) (A) (A) (A) (A) (A) (A) (A) (A) (A) (A) (A)
                 (A) (A) (A) (A) (A) (A) (A) (A) (A) (A) (A) (A)
                 (A) (A) (A) (A) (A) (A) (A) (A) (A) (A) (A) (A)
                 (A) (A) (A) (A) (A) (A) (A) (A) (A) (A) (A) (A)
                 (A) (A) (A) (A) (A) (A) (A) (A) (A) (A) (A) (A)
                 (A) (A) (A) (A) (A) (A) (A) (A) (A) (A) (A) (A)
                 (A) (A) (A) (A) (A) (A) (A) (A) (A) (A) (A) (A)
                 (A) (A) (A) (A) (A) (A) (A) (A) (A) (A) (A) (A)
                 (A) (A) (A) (A) (A) (A) (A) (A) (A) (A) (A) (A)
                 (A) (A) (A) (A) (A) (A) (A) (A) (A) (A) (A) (A)
                 (A) (A) (A) (A) (A) (A) (A) (A) (A) (A) (A) (A)
                 (A) (A) (A) (A) (A) (A) (A) (A) (A) (A) (A) (A)
                 (A) (A) (A) (A) (A) (A) (A) (A) (A) (A) (A) (A)
                 (A) (A) (A) (A) (A) (A) (A) (A) (A) (A) (A) (A)
                 (A) (A) (A) (A) (A) (A) (A) (A) (A) (A) (A) (A)
                 (A) (A) (A) (A) (A) (A) (A) (A) (A) (A) (A) (A)
                 (A) (A) (A) (A) (A) (A) (A) (A) (A) (A) (A) (A)
                 (A) (A) (A) (A) (A) (A) (A) (A) (A) (A) (A) (A)
                 (A) (A) (A) (A) (A) (A) (A) (A) (A) (A) (A) (A)
                 (A) (A) (A) (A) (A) (A) (A) (A) (A) (A) (A) (A)
                 (A) (A) (A) (A) (A) (A) (A) (A) (A) (A) (A) (A)
                 (A) (A) (A) (A) (A) (A) (A) (A) (A) (A) (A) (A)
                 (A) (A) (A) (A) (A) (A) (A) (A) (A) (A) (A) (A)
                 (A) (A) (A) (A) (A) (A) (A) (A) (A) (A) (A) (A)
 The electronic state is 1-A.
 Alpha  occ. eigenvalues --  -19.03333 -19.01695 -19.00153 -18.98389 -18.97424
 Alpha  occ. eigenvalues --  -18.89593 -10.16057 -10.14637 -10.12635 -10.12139
 Alpha  occ. eigenvalues --  -10.11736 -10.11680  -1.09061  -1.04571  -1.03685
 Alpha  occ. eigenvalues --   -1.01790  -1.00019  -0.93851  -0.78494  -0.74902
 Alpha  occ. eigenvalues --   -0.69926  -0.63498  -0.58260  -0.57507  -0.53961
 Alpha  occ. eigenvalues --   -0.53026  -0.51244  -0.48128  -0.47768  -0.44798
 Alpha  occ. eigenvalues --   -0.44424  -0.42893  -0.41731  -0.41045  -0.38279
 Alpha  occ. eigenvalues --   -0.36715  -0.36428  -0.35999  -0.34453  -0.34260
 Alpha  occ. eigenvalues --   -0.31948  -0.30258  -0.29890  -0.27453  -0.26706
 Alpha  occ. eigenvalues --   -0.24803  -0.20512  -0.18333
 Alpha virt. eigenvalues --   -0.04584  -0.02629  -0.01140   0.00790   0.01186
 Alpha virt. eigenvalues --    0.02535   0.03189   0.03819   0.04630   0.04956
 Alpha virt. eigenvalues --    0.05635   0.06313   0.06644   0.07536   0.09033
 Alpha virt. eigenvalues --    0.09437   0.10136   0.10893   0.11164   0.11935
 Alpha virt. eigenvalues --    0.12303   0.12378   0.13302   0.13836   0.14083
 Alpha virt. eigenvalues --    0.14541   0.15033   0.15549   0.15972   0.16406
 Alpha virt. eigenvalues --    0.16641   0.17059   0.17540   0.17869   0.18951
 Alpha virt. eigenvalues --    0.19176   0.19435   0.20399   0.21957   0.22383
 Alpha virt. eigenvalues --    0.22805   0.23066   0.24164   0.24445   0.24896
 Alpha virt. eigenvalues --    0.25694   0.26229   0.26996   0.28411   0.28984
 Alpha virt. eigenvalues --    0.29077   0.30801   0.30974   0.31324   0.31751
 Alpha virt. eigenvalues --    0.32751   0.33527   0.34056   0.34109   0.35245
 Alpha virt. eigenvalues --    0.35297   0.35777   0.36462   0.36822   0.37723
 Alpha virt. eigenvalues --    0.37850   0.39116   0.39442   0.41295   0.42206
 Alpha virt. eigenvalues --    0.43378   0.44829   0.46498   0.47779   0.49331
 Alpha virt. eigenvalues --    0.51012   0.52013   0.52484   0.54042   0.54762
 Alpha virt. eigenvalues --    0.55206   0.56956   0.57116   0.58258   0.59128
 Alpha virt. eigenvalues --    0.60437   0.61752   0.63080   0.64815   0.65800
 Alpha virt. eigenvalues --    0.66930   0.68009   0.68523   0.69733   0.71116
 Alpha virt. eigenvalues --    0.71284   0.72255   0.73913   0.76178   0.79089
 Alpha virt. eigenvalues --    0.80653   0.83959   0.86127   0.89160   0.91907
 Alpha virt. eigenvalues --    0.93014   0.94360   0.99414   1.01033   1.02334
 Alpha virt. eigenvalues --    1.04020   1.06702   1.06973   1.08842   1.09437
 Alpha virt. eigenvalues --    1.10584   1.13042   1.14903   1.15252   1.16794
 Alpha virt. eigenvalues --    1.16978   1.18754   1.19837   1.20606   1.21551
 Alpha virt. eigenvalues --    1.22085   1.22963   1.25695   1.26937   1.27482
 Alpha virt. eigenvalues --    1.30124   1.30505   1.34564   1.36392   1.40062
 Alpha virt. eigenvalues --    1.40993   1.42618   1.44636   1.45606   1.47979
 Alpha virt. eigenvalues --    1.50268   1.51169   1.52789   1.54457   1.54698
 Alpha virt. eigenvalues --    1.54895   1.58591   1.59439   1.60578   1.61315
 Alpha virt. eigenvalues --    1.62697   1.64221   1.65168   1.66651   1.67268
 Alpha virt. eigenvalues --    1.69288   1.69491   1.72100   1.74059   1.75179
 Alpha virt. eigenvalues --    1.77021   1.80540   1.81122   1.82079   1.83505
 Alpha virt. eigenvalues --    1.85261   1.87178   1.90745   1.91988   1.93237
 Alpha virt. eigenvalues --    1.96629   2.00281   2.01550   2.03861   2.04429
 Alpha virt. eigenvalues --    2.06057   2.06761   2.07442   2.09252   2.11558
 Alpha virt. eigenvalues --    2.13391   2.16037   2.17646   2.20599   2.21593
 Alpha virt. eigenvalues --    2.26361   2.28762   2.31053   2.32099   2.33361
 Alpha virt. eigenvalues --    2.34815   2.40336   2.44037   2.44868   2.50390
 Alpha virt. eigenvalues --    2.51570   2.56159   2.61562   2.64049   2.65081
 Alpha virt. eigenvalues --    2.68389   2.69167   2.71571   2.73271   2.75637
 Alpha virt. eigenvalues --    2.78921   2.81030   2.85618   2.87774   2.88954
 Alpha virt. eigenvalues --    2.92895   2.94336   2.95778   2.96665   3.02161
 Alpha virt. eigenvalues --    3.02366   3.03488   3.07487   3.08652   3.09841
 Alpha virt. eigenvalues --    3.12129   3.13611   3.14369   3.15771   3.16908
 Alpha virt. eigenvalues --    3.19408   3.20425   3.21336   3.23750   3.24826
 Alpha virt. eigenvalues --    3.29634   3.31456   3.33431   3.34543   3.37109
 Alpha virt. eigenvalues --    3.38585   3.41832   3.43835   3.53400   3.57372
 Alpha virt. eigenvalues --    3.58125   3.79048   3.81078   3.85372   3.87293
 Alpha virt. eigenvalues --    3.90679   3.93377   3.97335   3.99347   4.03276
 Alpha virt. eigenvalues --    4.05256   4.05385   4.08285   4.19809   4.22445
 Alpha virt. eigenvalues --    4.26002   4.33838   4.38334   5.12807   5.13836
 Alpha virt. eigenvalues --    5.20342   5.22642   5.23726   5.24801   5.29297
 Alpha virt. eigenvalues --    5.46123   5.51162   5.51325   5.51735   5.54023
 Alpha virt. eigenvalues --    5.72820   5.74117   5.78252   5.79652   5.81489
 Alpha virt. eigenvalues --    5.96204  23.82915  23.90262  23.92760  23.93392
 Alpha virt. eigenvalues --   23.96773  24.08100  50.16159  50.17468  50.17965
 Alpha virt. eigenvalues --   50.20245  50.25992  50.29079
          Condensed to atoms (all electrons):
               1          2          3          4          5          6
     1  O    8.294197   0.405046  -0.026975   0.022164  -0.290972  -0.040919
     2  C    0.405046   6.737166   0.415848  -0.135951  -1.539184  -0.129106
     3  H   -0.026975   0.415848   0.640799   0.004328  -0.225720  -0.039208
     4  O    0.022164  -0.135951   0.004328   7.759871   0.290709  -0.073297
     5  C   -0.290972  -1.539184  -0.225720   0.290709  13.074224   0.299343
     6  H   -0.040919  -0.129106  -0.039208  -0.073297   0.299343   0.705430
     7  C    0.119734  -0.412757   0.074736   0.076782  -4.469617   0.227429
     8  H   -0.000538   0.069730  -0.002647   0.011842  -0.195916  -0.014116
     9  C    0.000241   0.105631   0.037352  -0.086561   0.285600  -0.059645
    10  H   -0.000025   0.001408  -0.000546   0.006505  -0.114399   0.000294
    11  C    0.003164   0.064345   0.001555   0.027260  -0.705498   0.006375
    12  H   -0.000007   0.000030   0.000002   0.000040   0.003747  -0.000019
    13  C    0.000146   0.033195   0.001362   0.003403  -0.190840  -0.000649
    14  H   -0.000000  -0.000167  -0.000001   0.000001   0.004854   0.000001
    15  H    0.000007  -0.000594  -0.000031  -0.000130   0.007060   0.000092
    16  O   -0.000046  -0.003266  -0.001227  -0.000011   0.018973   0.000256
    17  H    0.000005  -0.000389   0.000027   0.000011  -0.002554   0.000014
    18  O    0.000020  -0.003432  -0.000028  -0.000193  -0.000508   0.000084
    19  H   -0.000015   0.000960  -0.000022   0.000080   0.003459  -0.000008
    20  O   -0.004114   0.064467  -0.007211  -0.003112   0.031623  -0.007706
    21  H    0.000733  -0.007115  -0.001283  -0.000412  -0.040796   0.001294
    22  O   -0.001622   0.107905   0.000448   0.006054  -0.217097  -0.033359
    23  H   -0.000022  -0.013238  -0.000032  -0.003377   0.058212   0.003480
    24  H   -0.000007   0.099437   0.000097   0.267270  -0.026565  -0.000561
               7          8          9         10         11         12
     1  O    0.119734  -0.000538   0.000241  -0.000025   0.003164  -0.000007
     2  C   -0.412757   0.069730   0.105631   0.001408   0.064345   0.000030
     3  H    0.074736  -0.002647   0.037352  -0.000546   0.001555   0.000002
     4  O    0.076782   0.011842  -0.086561   0.006505   0.027260   0.000040
     5  C   -4.469617  -0.195916   0.285600  -0.114399  -0.705498   0.003747
     6  H    0.227429  -0.014116  -0.059645   0.000294   0.006375  -0.000019
     7  C   11.756260   0.362629  -2.067199   0.078971   0.996573   0.001199
     8  H    0.362629   0.565933   0.017712   0.004844  -0.022282  -0.000197
     9  C   -2.067199   0.017712   8.872306   0.366395  -1.973392  -0.019927
    10  H    0.078971   0.004844   0.366395   0.518528  -0.009500  -0.005244
    11  C    0.996573  -0.022282  -1.973392  -0.009500   7.708921   0.309720
    12  H    0.001199  -0.000197  -0.019927  -0.005244   0.309720   0.561408
    13  C   -0.111359   0.048322   0.322604   0.027429  -0.308459   0.009579
    14  H   -0.010366   0.000216   0.059517  -0.000218  -0.085628  -0.005308
    15  H    0.044992  -0.008622  -0.053652  -0.000657   0.026867  -0.001902
    16  O   -0.078013  -0.003303   0.080323  -0.001029  -0.172989   0.017237
    17  H    0.000284   0.000616  -0.003570   0.000129  -0.012021   0.000852
    18  O    0.073683  -0.002298  -0.215982  -0.002266   0.470589  -0.052229
    19  H    0.015616   0.000228  -0.036473  -0.000745   0.010604   0.007022
    20  O   -0.289921   0.007692   0.334925  -0.051491  -0.165887   0.014804
    21  H    0.071061  -0.004761   0.017576   0.005934   0.005375  -0.002740
    22  O    0.016040  -0.011701  -0.029508   0.003298   0.041327  -0.001824
    23  H    0.033697  -0.012143  -0.019924  -0.000284   0.000017  -0.000019
    24  H   -0.067970   0.001208  -0.023602   0.000694   0.011683  -0.000130
              13         14         15         16         17         18
     1  O    0.000146  -0.000000   0.000007  -0.000046   0.000005   0.000020
     2  C    0.033195  -0.000167  -0.000594  -0.003266  -0.000389  -0.003432
     3  H    0.001362  -0.000001  -0.000031  -0.001227   0.000027  -0.000028
     4  O    0.003403   0.000001  -0.000130  -0.000011   0.000011  -0.000193
     5  C   -0.190840   0.004854   0.007060   0.018973  -0.002554  -0.000508
     6  H   -0.000649   0.000001   0.000092   0.000256   0.000014   0.000084
     7  C   -0.111359  -0.010366   0.044992  -0.078013   0.000284   0.073683
     8  H    0.048322   0.000216  -0.008622  -0.003303   0.000616  -0.002298
     9  C    0.322604   0.059517  -0.053652   0.080323  -0.003570  -0.215982
    10  H    0.027429  -0.000218  -0.000657  -0.001029   0.000129  -0.002266
    11  C   -0.308459  -0.085628   0.026867  -0.172989  -0.012021   0.470589
    12  H    0.009579  -0.005308  -0.001902   0.017237   0.000852  -0.052229
    13  C    5.531121   0.433247   0.336517   0.147360   0.039046  -0.198074
    14  H    0.433247   0.539444  -0.040685  -0.044497  -0.006594  -0.009896
    15  H    0.336517  -0.040685   0.615828  -0.058459   0.000723   0.012070
    16  O    0.147360  -0.044497  -0.058459   8.290427   0.230197   0.005449
    17  H    0.039046  -0.006594   0.000723   0.230197   0.429376   0.001129
    18  O   -0.198074  -0.009896   0.012070   0.005449   0.001129   7.977781
    19  H    0.005649  -0.000719  -0.000942   0.006142   0.000995   0.250029
    20  O    0.019177  -0.000628  -0.001674   0.026856   0.001992  -0.016402
    21  H    0.026150  -0.000924  -0.001193  -0.031625   0.003925  -0.005990
    22  O   -0.029680   0.000364  -0.006534   0.001683  -0.000085  -0.003714
    23  H   -0.002044   0.000047   0.000141   0.000427  -0.000007   0.000188
    24  H   -0.000317  -0.000000   0.000016  -0.000009  -0.000001  -0.000011
              19         20         21         22         23         24
     1  O   -0.000015  -0.004114   0.000733  -0.001622  -0.000022  -0.000007
     2  C    0.000960   0.064467  -0.007115   0.107905  -0.013238   0.099437
     3  H   -0.000022  -0.007211  -0.001283   0.000448  -0.000032   0.000097
     4  O    0.000080  -0.003112  -0.000412   0.006054  -0.003377   0.267270
     5  C    0.003459   0.031623  -0.040796  -0.217097   0.058212  -0.026565
     6  H   -0.000008  -0.007706   0.001294  -0.033359   0.003480  -0.000561
     7  C    0.015616  -0.289921   0.071061   0.016040   0.033697  -0.067970
     8  H    0.000228   0.007692  -0.004761  -0.011701  -0.012143   0.001208
     9  C   -0.036473   0.334925   0.017576  -0.029508  -0.019924  -0.023602
    10  H   -0.000745  -0.051491   0.005934   0.003298  -0.000284   0.000694
    11  C    0.010604  -0.165887   0.005375   0.041327   0.000017   0.011683
    12  H    0.007022   0.014804  -0.002740  -0.001824  -0.000019  -0.000130
    13  C    0.005649   0.019177   0.026150  -0.029680  -0.002044  -0.000317
    14  H   -0.000719  -0.000628  -0.000924   0.000364   0.000047  -0.000000
    15  H   -0.000942  -0.001674  -0.001193  -0.006534   0.000141   0.000016
    16  O    0.006142   0.026856  -0.031625   0.001683   0.000427  -0.000009
    17  H    0.000995   0.001992   0.003925  -0.000085  -0.000007  -0.000001
    18  O    0.250029  -0.016402  -0.005990  -0.003714   0.000188  -0.000011
    19  H    0.437146   0.044478  -0.007650  -0.000028   0.000009  -0.000009
    20  O    0.044478   8.022079   0.249564   0.023798  -0.001125   0.000133
    21  H   -0.007650   0.249564   0.407248  -0.001669   0.000039   0.000087
    22  O   -0.000028   0.023798  -0.001669   8.177369   0.239179   0.032251
    23  H    0.000009  -0.001125   0.000039   0.239179   0.414837  -0.004871
    24  H   -0.000009   0.000133   0.000087   0.032251  -0.004871   0.407778
 Mulliken charges:
               1
     1  O   -0.480197
     2  C    0.140032
     3  H    0.128379
     4  O   -0.173278
     5  C   -0.058136
     6  H    0.154503
     7  C   -0.442486
     8  H    0.187553
     9  C    0.089252
    10  H    0.171976
    11  C   -0.228719
    12  H    0.163907
    13  C   -0.142884
    14  H    0.167940
    15  H    0.130761
    16  O   -0.430858
    17  H    0.315900
    18  O   -0.280002
    19  H    0.264194
    20  O   -0.292317
    21  H    0.317171
    22  O   -0.312898
    23  H    0.306811
    24  H    0.303397
 Sum of Mulliken charges =  -0.00000
 Mulliken charges with hydrogens summed into heavy atoms:
               1
     1  O   -0.480197
     2  C    0.422914
     4  O    0.130118
     5  C   -0.058136
     7  C   -0.254933
     9  C    0.261228
    11  C   -0.064812
    13  C    0.155817
    16  O   -0.114958
    18  O   -0.015808
    20  O    0.024853
    22  O   -0.006086
 Electronic spatial extent (au):  <R**2>=           2380.4326
 Charge=             -0.0000 electrons
 Dipole moment (field-independent basis, Debye):
    X=             -6.6455    Y=              3.0510    Z=             -6.5367  Tot=              9.8081
 Quadrupole moment (field-independent basis, Debye-Ang):
   XX=           -101.5690   YY=            -68.5772   ZZ=            -65.7908
   XY=             17.8570   XZ=              1.9553   YZ=              0.9382
 Traceless Quadrupole moment (field-independent basis, Debye-Ang):
   XX=            -22.9233   YY=             10.0685   ZZ=             12.8549
   XY=             17.8570   XZ=              1.9553   YZ=              0.9382
 Octapole moment (field-independent basis, Debye-Ang**2):
  XXX=           -141.1540  YYY=              7.7597  ZZZ=            -18.9692  XYY=            -16.7122
  XXY=             30.7300  XXZ=            -46.9163  XZZ=             -5.4092  YZZ=              1.1760
  YYZ=            -10.5951  XYZ=             -3.0696
 Hexadecapole moment (field-independent basis, Debye-Ang**3):
 XXXX=          -2584.8104 YYYY=           -482.9991 ZZZZ=           -342.5915 XXXY=            241.3586
 XXXZ=             53.0736 YYYX=             89.5815 YYYZ=              9.2729 ZZZX=             16.9403
 ZZZY=             -8.0718 XXYY=           -441.0620 XXZZ=           -377.1602 YYZZ=           -119.7542
 XXYZ=              8.4340 YYXZ=              8.1051 ZZXY=             47.0376
 N-N= 8.070697991462D+02 E-N=-3.227416482287D+03  KE= 6.847890641363D+02
 1\1\GINC-N2468\SP\RM06L\6-311+G(d,p)\C6H12O6\YKIM\09-Sep-2018\0\\# m06
 l/6-311+g(d,p) scf=(xqc,maxconventionalcycles=400) scrf=(smd,solvent=1
 ,4-dioxane) temperature=443.15\\Title Card Required\\0,1\O,0,-1.443453
 ,-1.002083,1.16743\C,0,-0.274862,-0.463882,1.101355\H,0,0.389602,-0.51
 7113,1.974439\O,0,-0.326826,-0.071353,-1.215173\C,0,0.349194,-0.009787
 ,-0.090367\H,0,-0.340189,0.800406,0.913128\C,0,1.737403,0.572167,-0.14
 8121\H,0,2.022696,0.94615,0.843697\C,0,2.732169,-0.514427,-0.587627\H,
 0,2.403396,-0.921088,-1.551465\C,0,4.159855,0.021728,-0.770223\H,0,4.1
 7293,0.694889,-1.632836\C,0,4.66757,0.810231,0.422929\H,0,5.73949,0.99
 2742,0.293234\H,0,4.164007,1.786722,0.475964\O,0,4.417178,0.053051,1.6
 11245\H,0,4.923897,0.421678,2.339573\O,0,5.010903,-1.062051,-1.090119\
 H,0,4.748252,-1.800218,-0.525223\O,0,2.697189,-1.601511,0.318472\H,0,3
 .13139,-1.297934,1.131041\O,0,1.763774,1.591174,-1.139916\H,0,1.406713
 ,2.406467,-0.766773\H,0,0.0777,0.552218,-1.848239\\Version=ES64L-G16Re
 vA.03\State=1-A\HF=-687.2270324\RMSD=3.481e-09\Dipole=2.5347953,2.8987
 438,0.2501933\Quadrupole=-15.3108021,7.8868943,7.4239078,-6.7040288,13
 .1540181,1.984147\PG=C01 [X(C6H12O6)]\\@


 BE LIKE A POSTAGE STAMP.  STICK TO ONE THING UNTIL
 YOU GET THERE -- JOSH BILLINGS
 Job cpu time:       0 days  0 hours 25 minutes  6.1 seconds.
 Elapsed time:       0 days  0 hours  1 minutes  3.6 seconds.
 File lengths (MBytes):  RWF=    121 Int=      0 D2E=      0 Chk=      8 Scr=      1
 Normal termination of Gaussian 16 at Sun Sep  9 22:55:31 2018.
