 Entering Gaussian System, Link 0=/nopt/nrel/apps/gaussian/g16C_1/g16/g16
 Initial command:
 /nopt/nrel/apps/gaussian/g16C_1/g16/l1.exe "/tmp/scratch/5098283/Gau-68795.inp" -scrdir="/tmp/scratch/5098283/"
 Default is to use a total of  36 processors:
                               36 via shared-memory
                                1 via Linda
 Entering Link 1 = /nopt/nrel/apps/gaussian/g16C_1/g16/l1.exe PID=     68796.
  
 Copyright (c) 1988-2019, Gaussian, Inc.  All Rights Reserved.
  
 This is part of the Gaussian(R) 16 program.  It is based on
 the Gaussian(R) 09 system (copyright 2009, Gaussian, Inc.),
 the Gaussian(R) 03 system (copyright 2003, Gaussian, Inc.),
 the Gaussian(R) 98 system (copyright 1998, Gaussian, Inc.),
 the Gaussian(R) 94 system (copyright 1995, Gaussian, Inc.),
 the Gaussian 92(TM) system (copyright 1992, Gaussian, Inc.),
 the Gaussian 90(TM) system (copyright 1990, Gaussian, Inc.),
 the Gaussian 88(TM) system (copyright 1988, Gaussian, Inc.),
 the Gaussian 86(TM) system (copyright 1986, Carnegie Mellon
 University), and the Gaussian 82(TM) system (copyright 1983,
 Carnegie Mellon University). Gaussian is a federally registered
 trademark of Gaussian, Inc.
  
 This software contains proprietary and confidential information,
 including trade secrets, belonging to Gaussian, Inc.
  
 This software is provided under written license and may be
 used, copied, transmitted, or stored only in accord with that
 written license.
  
 The following legend is applicable only to US Government
 contracts under FAR:
  
                    RESTRICTED RIGHTS LEGEND
  
 Use, reproduction and disclosure by the US Government is
 subject to restrictions as set forth in subparagraphs (a)
 and (c) of the Commercial Computer Software - Restricted
 Rights clause in FAR 52.227-19.
  
 Gaussian, Inc.
 340 Quinnipiac St., Bldg. 40, Wallingford CT 06492
  
  
 ---------------------------------------------------------------
 Warning -- This program may not be used in any manner that
 competes with the business of Gaussian, Inc. or will provide
 assistance to any competitor of Gaussian, Inc.  The licensee
 of this program is prohibited from giving any competitor of
 Gaussian, Inc. access to this program.  By using this program,
 the user acknowledges that Gaussian, Inc. is engaged in the
 business of creating and licensing software in the field of
 computational chemistry and represents and warrants to the
 licensee that it is not a competitor of Gaussian, Inc. and that
 it will not use this program in any manner prohibited above.
 ---------------------------------------------------------------
  

 Cite this work as:
 Gaussian 16, Revision C.01,
 M. J. Frisch, G. W. Trucks, H. B. Schlegel, G. E. Scuseria, 
 M. A. Robb, J. R. Cheeseman, G. Scalmani, V. Barone, 
 G. A. Petersson, H. Nakatsuji, X. Li, M. Caricato, A. V. Marenich, 
 J. Bloino, B. G. Janesko, R. Gomperts, B. Mennucci, H. P. Hratchian, 
 J. V. Ortiz, A. F. Izmaylov, J. L. Sonnenberg, D. Williams-Young, 
 F. Ding, F. Lipparini, F. Egidi, J. Goings, B. Peng, A. Petrone, 
 T. Henderson, D. Ranasinghe, V. G. Zakrzewski, J. Gao, N. Rega, 
 G. Zheng, W. Liang, M. Hada, M. Ehara, K. Toyota, R. Fukuda, 
 J. Hasegawa, M. Ishida, T. Nakajima, Y. Honda, O. Kitao, H. Nakai, 
 T. Vreven, K. Throssell, J. A. Montgomery, Jr., J. E. Peralta, 
 F. Ogliaro, M. J. Bearpark, J. J. Heyd, E. N. Brothers, K. N. Kudin, 
 V. N. Staroverov, T. A. Keith, R. Kobayashi, J. Normand, 
 K. Raghavachari, A. P. Rendell, J. C. Burant, S. S. Iyengar, 
 J. Tomasi, M. Cossi, J. M. Millam, M. Klene, C. Adamo, R. Cammi, 
 J. W. Ochterski, R. L. Martin, K. Morokuma, O. Farkas, 
 J. B. Foresman, and D. J. Fox, Gaussian, Inc., Wallingford CT, 2019.
 
 ******************************************
 Gaussian 16:  ES64L-G16RevC.01  3-Jul-2019
                13-Nov-2020 
 ******************************************
 %nprocshared=18
 Will use up to   18 processors via shared memory.
 %MEM=24GB
 Default route: CacheSize=180224 MaxDisk=256GB
 -----------------------------------------------------------------
 # opt freq b3lyp/6-31g(2df,p) scf=(xqc,maxconventionalcycles=400)
 -----------------------------------------------------------------
 1/4=180224,18=20,19=15,26=3,38=1/1,3;
 2/4=180224,9=110,12=2,17=6,18=5,40=1/2;
 3/4=180224,5=1,6=6,7=104,11=2,25=1,30=1,71=1,74=-5/1,2,3;
 4/4=180224/1;
 5/4=180224,5=2,8=3,13=1,38=5,85=400/2,8;
 6/4=180224,7=2,8=2,9=2,10=2,28=1/1;
 7/4=180224/1,2,3,16;
 1/4=180224,18=20,19=15,26=3/3(2);
 2/4=180224,9=110/2;
 99/4=180224/99;
 2/4=180224,9=110/2;
 3/4=180224,5=1,6=6,7=104,11=2,25=1,30=1,71=1,74=-5/1,2,3;
 4/4=180224,5=5,16=3,69=1/1;
 5/4=180224,5=2,8=3,13=1,38=5,85=400/2,8;
 7/4=180224/1,2,3,16;
 1/4=180224,18=20,19=15,26=3/3(-5);
 2/4=180224,9=110/2;
 6/4=180224,7=2,8=2,9=2,10=2,19=2,28=1/1;
 99/4=180224,9=1/99;
 ----
 0_34
 ----
 Symbolic Z-matrix:
 Charge =  0 Multiplicity = 1
 C                     5.4004   -1.2801   -0.2087 
 C                     4.0961   -0.7824   -0.8108 
 C                     3.1031   -0.3631    0.2729 
 C                     1.7946    0.136    -0.3359 
 C                     0.7978    0.5562    0.7379 
 O                    -0.3914    1.0059    0.0913 
 C                    -1.3814    1.4181    1.0303 
 C                    -2.6324    1.872     0.2827 
 C                    -3.24      0.813    -0.6443 
 C                    -3.7323   -0.4305    0.0967 
 C                    -4.4307   -1.3979   -0.8468 
 H                     6.0956   -1.5745   -1.0012 
 H                     5.2294   -2.1499    0.4336 
 H                     5.8793   -0.499     0.3904 
 H                     4.3061    0.0663   -1.4721 
 H                     3.6598   -1.5755   -1.4291 
 H                     2.8996   -1.2143    0.934 
 H                     3.5458    0.4273    0.891 
 H                     1.3449   -0.6446   -0.9624 
 H                     1.986     0.9843   -1.0049 
 H                     0.5615   -0.2935    1.3888 
 H                     1.2137    1.3681    1.3454 
 H                    -0.9921    2.255     1.6217 
 H                    -1.6149    0.5949    1.7139 
 H                    -3.3853    2.2053    1.0064 
 H                    -2.3726    2.7405   -0.3354 
 H                    -2.51      0.5226   -1.4094 
 H                    -4.083     1.2709   -1.1768 
 H                    -2.8917   -0.9494    0.5695 
 H                    -4.4274   -0.1397    0.8927 
 H                    -4.7719   -2.2818   -0.2989 
 H                    -3.7531   -1.73     -1.6398 
 H                    -5.3035   -0.9302   -1.3135 
 

 GradGradGradGradGradGradGradGradGradGradGradGradGradGradGradGradGradGrad
 Berny optimization.
 Initialization pass.
                           ----------------------------
                           !    Initial Parameters    !
                           ! (Angstroms and Degrees)  !
 --------------------------                            --------------------------
 ! Name  Definition              Value          Derivative Info.                !
 --------------------------------------------------------------------------------
 ! R1    R(1,2)                  1.5203         estimate D2E/DX2                !
 ! R2    R(1,12)                 1.0945         estimate D2E/DX2                !
 ! R3    R(1,13)                 1.0947         estimate D2E/DX2                !
 ! R4    R(1,14)                 1.0947         estimate D2E/DX2                !
 ! R5    R(2,3)                  1.5285         estimate D2E/DX2                !
 ! R6    R(2,15)                 1.0962         estimate D2E/DX2                !
 ! R7    R(2,16)                 1.0962         estimate D2E/DX2                !
 ! R8    R(3,4)                  1.5271         estimate D2E/DX2                !
 ! R9    R(3,17)                 1.0968         estimate D2E/DX2                !
 ! R10   R(3,18)                 1.0967         estimate D2E/DX2                !
 ! R11   R(4,5)                  1.5242         estimate D2E/DX2                !
 ! R12   R(4,19)                 1.0973         estimate D2E/DX2                !
 ! R13   R(4,20)                 1.0972         estimate D2E/DX2                !
 ! R14   R(5,6)                  1.4264         estimate D2E/DX2                !
 ! R15   R(5,21)                 1.0961         estimate D2E/DX2                !
 ! R16   R(5,22)                 1.096          estimate D2E/DX2                !
 ! R17   R(6,7)                  1.4254         estimate D2E/DX2                !
 ! R18   R(7,8)                  1.5264         estimate D2E/DX2                !
 ! R19   R(7,23)                 1.0962         estimate D2E/DX2                !
 ! R20   R(7,24)                 1.0952         estimate D2E/DX2                !
 ! R21   R(8,9)                  1.533          estimate D2E/DX2                !
 ! R22   R(8,25)                 1.0962         estimate D2E/DX2                !
 ! R23   R(8,26)                 1.0972         estimate D2E/DX2                !
 ! R24   R(9,10)                 1.529          estimate D2E/DX2                !
 ! R25   R(9,27)                 1.0966         estimate D2E/DX2                !
 ! R26   R(9,28)                 1.0972         estimate D2E/DX2                !
 ! R27   R(10,11)                1.5211         estimate D2E/DX2                !
 ! R28   R(10,29)                1.0952         estimate D2E/DX2                !
 ! R29   R(10,30)                1.0961         estimate D2E/DX2                !
 ! R30   R(11,31)                1.0945         estimate D2E/DX2                !
 ! R31   R(11,32)                1.0947         estimate D2E/DX2                !
 ! R32   R(11,33)                1.0947         estimate D2E/DX2                !
 ! A1    A(2,1,12)             110.2552         estimate D2E/DX2                !
 ! A2    A(2,1,13)             111.006          estimate D2E/DX2                !
 ! A3    A(2,1,14)             111.0057         estimate D2E/DX2                !
 ! A4    A(12,1,13)            108.0791         estimate D2E/DX2                !
 ! A5    A(12,1,14)            108.0777         estimate D2E/DX2                !
 ! A6    A(13,1,14)            108.3108         estimate D2E/DX2                !
 ! A7    A(1,2,3)              111.4915         estimate D2E/DX2                !
 ! A8    A(1,2,15)             109.1477         estimate D2E/DX2                !
 ! A9    A(1,2,16)             109.1465         estimate D2E/DX2                !
 ! A10   A(3,2,15)             109.8634         estimate D2E/DX2                !
 ! A11   A(3,2,16)             109.865          estimate D2E/DX2                !
 ! A12   A(15,2,16)            107.2248         estimate D2E/DX2                !
 ! A13   A(2,3,4)              111.3263         estimate D2E/DX2                !
 ! A14   A(2,3,17)             109.572          estimate D2E/DX2                !
 ! A15   A(2,3,18)             109.5758         estimate D2E/DX2                !
 ! A16   A(4,3,17)             109.5703         estimate D2E/DX2                !
 ! A17   A(4,3,18)             109.5743         estimate D2E/DX2                !
 ! A18   A(17,3,18)            107.1277         estimate D2E/DX2                !
 ! A19   A(3,4,5)              111.6919         estimate D2E/DX2                !
 ! A20   A(3,4,19)             110.2602         estimate D2E/DX2                !
 ! A21   A(3,4,20)             110.2617         estimate D2E/DX2                !
 ! A22   A(5,4,19)             109.2888         estimate D2E/DX2                !
 ! A23   A(5,4,20)             109.299          estimate D2E/DX2                !
 ! A24   A(19,4,20)            105.8652         estimate D2E/DX2                !
 ! A25   A(4,5,6)              108.2277         estimate D2E/DX2                !
 ! A26   A(4,5,21)             110.2195         estimate D2E/DX2                !
 ! A27   A(4,5,22)             110.2765         estimate D2E/DX2                !
 ! A28   A(6,5,21)             109.5029         estimate D2E/DX2                !
 ! A29   A(6,5,22)             109.5174         estimate D2E/DX2                !
 ! A30   A(21,5,22)            109.0809         estimate D2E/DX2                !
 ! A31   A(5,6,7)              111.8146         estimate D2E/DX2                !
 ! A32   A(6,7,8)              109.4251         estimate D2E/DX2                !
 ! A33   A(6,7,23)             109.2396         estimate D2E/DX2                !
 ! A34   A(6,7,24)             109.9927         estimate D2E/DX2                !
 ! A35   A(8,7,23)             109.1633         estimate D2E/DX2                !
 ! A36   A(8,7,24)             110.7616         estimate D2E/DX2                !
 ! A37   A(23,7,24)            108.2285         estimate D2E/DX2                !
 ! A38   A(7,8,9)              114.5564         estimate D2E/DX2                !
 ! A39   A(7,8,25)             109.2667         estimate D2E/DX2                !
 ! A40   A(7,8,26)             108.4957         estimate D2E/DX2                !
 ! A41   A(9,8,25)             109.6963         estimate D2E/DX2                !
 ! A42   A(9,8,26)             107.4586         estimate D2E/DX2                !
 ! A43   A(25,8,26)            107.0896         estimate D2E/DX2                !
 ! A44   A(8,9,10)             113.3527         estimate D2E/DX2                !
 ! A45   A(8,9,27)             109.9369         estimate D2E/DX2                !
 ! A46   A(8,9,28)             108.0413         estimate D2E/DX2                !
 ! A47   A(10,9,27)            109.6997         estimate D2E/DX2                !
 ! A48   A(10,9,28)            109.1011         estimate D2E/DX2                !
 ! A49   A(27,9,28)            106.4607         estimate D2E/DX2                !
 ! A50   A(9,10,11)            111.3746         estimate D2E/DX2                !
 ! A51   A(9,10,29)            110.3304         estimate D2E/DX2                !
 ! A52   A(9,10,30)            109.9001         estimate D2E/DX2                !
 ! A53   A(11,10,29)           108.5937         estimate D2E/DX2                !
 ! A54   A(11,10,30)           109.1486         estimate D2E/DX2                !
 ! A55   A(29,10,30)           107.3944         estimate D2E/DX2                !
 ! A56   A(10,11,31)           110.2575         estimate D2E/DX2                !
 ! A57   A(10,11,32)           110.9819         estimate D2E/DX2                !
 ! A58   A(10,11,33)           111.026          estimate D2E/DX2                !
 ! A59   A(31,11,32)           108.0961         estimate D2E/DX2                !
 ! A60   A(31,11,33)           108.0537         estimate D2E/DX2                !
 ! A61   A(32,11,33)           108.3191         estimate D2E/DX2                !
 ! D1    D(12,1,2,3)          -179.9981         estimate D2E/DX2                !
 ! D2    D(12,1,2,15)          -58.4465         estimate D2E/DX2                !
 ! D3    D(12,1,2,16)           58.4492         estimate D2E/DX2                !
 ! D4    D(13,1,2,3)            60.2641         estimate D2E/DX2                !
 ! D5    D(13,1,2,15)         -178.1843         estimate D2E/DX2                !
 ! D6    D(13,1,2,16)          -61.2886         estimate D2E/DX2                !
 ! D7    D(14,1,2,3)           -60.2622         estimate D2E/DX2                !
 ! D8    D(14,1,2,15)           61.2894         estimate D2E/DX2                !
 ! D9    D(14,1,2,16)          178.1851         estimate D2E/DX2                !
 ! D10   D(1,2,3,4)           -179.9971         estimate D2E/DX2                !
 ! D11   D(1,2,3,17)           -58.6352         estimate D2E/DX2                !
 ! D12   D(1,2,3,18)            58.6336         estimate D2E/DX2                !
 ! D13   D(15,2,3,4)            58.8676         estimate D2E/DX2                !
 ! D14   D(15,2,3,17)         -179.7706         estimate D2E/DX2                !
 ! D15   D(15,2,3,18)          -62.5017         estimate D2E/DX2                !
 ! D16   D(16,2,3,4)           -58.8623         estimate D2E/DX2                !
 ! D17   D(16,2,3,17)           62.4996         estimate D2E/DX2                !
 ! D18   D(16,2,3,18)          179.7684         estimate D2E/DX2                !
 ! D19   D(2,3,4,5)            179.9873         estimate D2E/DX2                !
 ! D20   D(2,3,4,19)            58.2665         estimate D2E/DX2                !
 ! D21   D(2,3,4,20)           -58.2777         estimate D2E/DX2                !
 ! D22   D(17,3,4,5)            58.6245         estimate D2E/DX2                !
 ! D23   D(17,3,4,19)          -63.0963         estimate D2E/DX2                !
 ! D24   D(17,3,4,20)         -179.6405         estimate D2E/DX2                !
 ! D25   D(18,3,4,5)           -58.6424         estimate D2E/DX2                !
 ! D26   D(18,3,4,19)          179.6367         estimate D2E/DX2                !
 ! D27   D(18,3,4,20)           63.0925         estimate D2E/DX2                !
 ! D28   D(3,4,5,6)           -179.9422         estimate D2E/DX2                !
 ! D29   D(3,4,5,21)           -60.2152         estimate D2E/DX2                !
 ! D30   D(3,4,5,22)            60.2794         estimate D2E/DX2                !
 ! D31   D(19,4,5,6)           -57.6624         estimate D2E/DX2                !
 ! D32   D(19,4,5,21)           62.0645         estimate D2E/DX2                !
 ! D33   D(19,4,5,22)         -177.4408         estimate D2E/DX2                !
 ! D34   D(20,4,5,6)            57.769          estimate D2E/DX2                !
 ! D35   D(20,4,5,21)          177.496          estimate D2E/DX2                !
 ! D36   D(20,4,5,22)          -62.0093         estimate D2E/DX2                !
 ! D37   D(4,5,6,7)            179.9307         estimate D2E/DX2                !
 ! D38   D(21,5,6,7)            59.7544         estimate D2E/DX2                !
 ! D39   D(22,5,6,7)           -59.8154         estimate D2E/DX2                !
 ! D40   D(5,6,7,8)           -179.3538         estimate D2E/DX2                !
 ! D41   D(5,6,7,23)            61.191          estimate D2E/DX2                !
 ! D42   D(5,6,7,24)           -57.4642         estimate D2E/DX2                !
 ! D43   D(6,7,8,9)             57.4858         estimate D2E/DX2                !
 ! D44   D(6,7,8,25)          -178.993          estimate D2E/DX2                !
 ! D45   D(6,7,8,26)           -62.5579         estimate D2E/DX2                !
 ! D46   D(23,7,8,9)           176.988          estimate D2E/DX2                !
 ! D47   D(23,7,8,25)          -59.4908         estimate D2E/DX2                !
 ! D48   D(23,7,8,26)           56.9442         estimate D2E/DX2                !
 ! D49   D(24,7,8,9)           -63.9406         estimate D2E/DX2                !
 ! D50   D(24,7,8,25)           59.5806         estimate D2E/DX2                !
 ! D51   D(24,7,8,26)          176.0156         estimate D2E/DX2                !
 ! D52   D(7,8,9,10)            62.9262         estimate D2E/DX2                !
 ! D53   D(7,8,9,27)           -60.2479         estimate D2E/DX2                !
 ! D54   D(7,8,9,28)          -176.043          estimate D2E/DX2                !
 ! D55   D(25,8,9,10)          -60.3646         estimate D2E/DX2                !
 ! D56   D(25,8,9,27)          176.4613         estimate D2E/DX2                !
 ! D57   D(25,8,9,28)           60.6662         estimate D2E/DX2                !
 ! D58   D(26,8,9,10)         -176.4549         estimate D2E/DX2                !
 ! D59   D(26,8,9,27)           60.371          estimate D2E/DX2                !
 ! D60   D(26,8,9,28)          -55.4241         estimate D2E/DX2                !
 ! D61   D(8,9,10,11)          175.1992         estimate D2E/DX2                !
 ! D62   D(8,9,10,29)          -64.1259         estimate D2E/DX2                !
 ! D63   D(8,9,10,30)           54.1149         estimate D2E/DX2                !
 ! D64   D(27,9,10,11)         -61.4962         estimate D2E/DX2                !
 ! D65   D(27,9,10,29)          59.1788         estimate D2E/DX2                !
 ! D66   D(27,9,10,30)         177.4195         estimate D2E/DX2                !
 ! D67   D(28,9,10,11)          54.7674         estimate D2E/DX2                !
 ! D68   D(28,9,10,29)         175.4424         estimate D2E/DX2                !
 ! D69   D(28,9,10,30)         -66.3168         estimate D2E/DX2                !
 ! D70   D(9,10,11,31)         179.7887         estimate D2E/DX2                !
 ! D71   D(9,10,11,32)          60.0437         estimate D2E/DX2                !
 ! D72   D(9,10,11,33)         -60.4907         estimate D2E/DX2                !
 ! D73   D(29,10,11,31)         58.0997         estimate D2E/DX2                !
 ! D74   D(29,10,11,32)        -61.6454         estimate D2E/DX2                !
 ! D75   D(29,10,11,33)        177.8202         estimate D2E/DX2                !
 ! D76   D(30,10,11,31)        -58.6888         estimate D2E/DX2                !
 ! D77   D(30,10,11,32)       -178.4338         estimate D2E/DX2                !
 ! D78   D(30,10,11,33)         61.0318         estimate D2E/DX2                !
 --------------------------------------------------------------------------------
 Trust Radius=3.00D-01 FncErr=1.00D-07 GrdErr=1.00D-06 EigMax=2.50D+02 EigMin=1.00D-04
 Number of steps in this run=    181 maximum allowed number of steps=    198.
 GradGradGradGradGradGradGradGradGradGradGradGradGradGradGradGradGradGrad

                          Input orientation:                          
 ---------------------------------------------------------------------
 Center     Atomic      Atomic             Coordinates (Angstroms)
 Number     Number       Type             X           Y           Z
 ---------------------------------------------------------------------
      1          6           0        5.400400   -1.280100   -0.208700
      2          6           0        4.096100   -0.782400   -0.810800
      3          6           0        3.103100   -0.363100    0.272900
      4          6           0        1.794600    0.136000   -0.335900
      5          6           0        0.797800    0.556200    0.737900
      6          8           0       -0.391400    1.005900    0.091300
      7          6           0       -1.381400    1.418100    1.030300
      8          6           0       -2.632400    1.872000    0.282700
      9          6           0       -3.240000    0.813000   -0.644300
     10          6           0       -3.732300   -0.430500    0.096700
     11          6           0       -4.430700   -1.397900   -0.846800
     12          1           0        6.095600   -1.574500   -1.001200
     13          1           0        5.229400   -2.149900    0.433600
     14          1           0        5.879300   -0.499000    0.390400
     15          1           0        4.306100    0.066300   -1.472100
     16          1           0        3.659800   -1.575500   -1.429100
     17          1           0        2.899600   -1.214300    0.934000
     18          1           0        3.545800    0.427300    0.891000
     19          1           0        1.344900   -0.644600   -0.962400
     20          1           0        1.986000    0.984300   -1.004900
     21          1           0        0.561500   -0.293500    1.388800
     22          1           0        1.213700    1.368100    1.345400
     23          1           0       -0.992100    2.255000    1.621700
     24          1           0       -1.614900    0.594900    1.713900
     25          1           0       -3.385300    2.205300    1.006400
     26          1           0       -2.372600    2.740500   -0.335400
     27          1           0       -2.510000    0.522600   -1.409400
     28          1           0       -4.083000    1.270900   -1.176800
     29          1           0       -2.891700   -0.949400    0.569500
     30          1           0       -4.427400   -0.139700    0.892700
     31          1           0       -4.771900   -2.281800   -0.298900
     32          1           0       -3.753100   -1.730000   -1.639800
     33          1           0       -5.303500   -0.930200   -1.313500
 ---------------------------------------------------------------------
                    Distance matrix (angstroms):
                    1          2          3          4          5
     1  C    0.000000
     2  C    1.520338   0.000000
     3  C    2.520003   1.528485   0.000000
     4  C    3.875992   2.523072   1.527059   0.000000
     5  C    5.044995   3.881894   2.525024   1.524213   0.000000
     6  O    6.233839   4.914210   3.757482   2.391197   1.426365
     7  C    7.403257   6.183434   4.884370   3.687446   2.361627
     8  C    8.643095   7.315346   6.155626   4.795278   3.702001
     9  C    8.900973   7.509420   6.516087   5.089267   4.275541
    10  C    9.177216   7.888678   6.838003   5.572673   4.680440
    11  C    9.852491   8.549062   7.686526   6.431814   5.802327
    12  H    1.094546   2.159091   3.470717   4.676220   5.969174
    13  H    1.094688   2.168630   2.782019   4.197061   5.201409
    14  H    1.094707   2.168640   2.782007   4.197084   5.201523
    15  H    2.146268   1.096225   2.162549   2.757434   4.175197
    16  H    2.146235   1.096203   2.162552   2.757406   4.175054
    17  H    2.750290   2.159277   1.096817   2.158004   2.755120
    18  H    2.750290   2.159242   1.096706   2.157971   2.755278
    19  H    4.173608   2.758817   2.167135   1.097301   2.152268
    20  H    4.173676   2.758881   2.167065   1.097182   2.152311
    21  H    5.190408   4.191737   2.776654   2.163237   1.096129
    22  H    5.191979   4.193099   2.777974   2.163859   1.095998
    23  H    7.530694   6.405672   5.044241   4.010992   2.621215
    24  H    7.511754   6.394262   5.025313   4.004617   2.602920
    25  H    9.529586   8.258324   7.016697   5.737171   4.504437
    26  H    8.752189   7.381118   6.323421   4.914161   3.996821
    27  H    8.201575   6.760318   5.926339   4.453251   3.943801
    28  H    9.868115   8.440834   7.510767   6.044939   5.291416
    29  H    8.335099   7.124778   6.030700   4.894819   3.988433
    30  H    9.954860   8.715792   7.559265   6.348130   5.273609
    31  H   10.221899   9.008422   8.125515   6.997574   6.336462
    32  H    9.275614   7.949536   7.248056   5.996590   5.620575
    33  H   10.766452   9.414193   8.573750   7.243998   6.606322
                    6          7          8          9         10
     6  O    0.000000
     7  C    1.425388   0.000000
     8  C    2.410154   1.526411   0.000000
     9  C    2.948362   2.573874   1.532967   0.000000
    10  C    3.636604   3.132996   2.558492   1.528965   0.000000
    11  C    4.793144   4.555391   3.898961   2.519296   1.521124
    12  H    7.066342   8.305912   9.471259   9.642664   9.954986
    13  H    6.455202   7.535871   8.832120   9.037222   9.131369
    14  H    6.455685   7.536744   8.836418   9.271115   9.616330
    15  H    5.039204   6.359011   7.381237   7.628004   8.205109
    16  H    5.038597   6.357986   7.376130   7.343574   7.634280
    17  H    4.058339   5.026506   6.368082   6.655499   6.730343
    18  H    4.059044   5.027762   6.373958   6.967998   7.371396
    19  H    2.617092   3.957057   4.868518   4.821524   5.190905
    20  H    2.618043   3.958485   4.876017   5.241226   5.992840
    21  H    2.068808   2.613993   4.014205   4.450757   4.486091
    22  H    2.068889   2.614638   4.021906   4.909428   5.408986
    23  H    2.064756   1.096225   2.151789   3.502453   4.128708
    24  H    2.073332   1.095212   2.171319   2.872216   2.854849
    25  H    3.352522   2.153107   1.096216   2.164353   2.809876
    26  H    2.667595   2.143911   1.097195   2.136132   3.477173
    27  H    2.640861   2.833336   2.167733   1.096636   2.161193
    28  H    3.912316   3.491647   2.143759   1.097214   2.153963
    29  H    3.209887   2.845769   2.847769   2.168104   1.095174
    30  H    4.271292   3.424002   2.764247   2.163313   1.096059
    31  H    5.490902   5.191486   4.708479   3.470419   2.159764
    32  H    4.667214   4.760770   4.233955   2.778694   2.169001
    33  H    5.463577   5.137196   4.187476   2.782913   2.169570
                   11         12         13         14         15
    11  C    0.000000
    12  H   10.528913   0.000000
    13  H    9.773559   1.772015   0.000000
    14  H   10.422801   1.772015   1.774741   0.000000
    15  H    8.880684   2.473112   3.065244   2.502684   0.000000
    16  H    8.113372   2.473099   2.502645   3.065226   1.764953
    17  H    7.545744   3.753553   2.560023   3.112197   3.067164
    18  H    8.365157   3.753546   3.112183   2.560050   2.508509
    19  H    5.825666   4.841009   4.393641   4.734137   3.087698
    20  H    6.846452   4.841104   4.734146   4.393726   2.538477
    21  H    5.580293   6.162737   5.113504   5.414613   4.726123
    22  H    6.657007   6.164282   5.416046   5.115263   4.381316
    23  H    5.591166   8.472318   7.715036   7.504449   6.514056
    24  H    4.296180   8.457534   7.484486   7.688388   6.744498
    25  H    4.184526  10.402154   9.670001   9.670859   8.359182
    26  H    4.650125   9.527483   9.071812   8.894661   7.283438
    27  H    2.773793   8.866837   8.392688   8.640793   6.831644
    28  H    2.711510  10.570290  10.050674  10.238949   8.480287
    29  H    2.139060   9.144912   8.210477   8.784383   7.550371
    30  H    2.146844  10.787912   9.874485  10.325186   9.050345
    31  H    1.094482  10.913114  10.028956  10.821348   9.449871
    32  H    1.094660   9.870607   9.228251   9.920696   8.258663
    33  H    1.094684  11.421564  10.746256  11.320081   9.662431
                   16         17         18         19         20
    16  H    0.000000
    17  H    2.508508   0.000000
    18  H    3.067094   1.764731   0.000000
    19  H    2.538335   2.517535   3.070508   0.000000
    20  H    3.087738   3.070479   2.517471   1.751037   0.000000
    21  H    4.379903   2.553709   3.110210   2.503024   3.064600
    22  H    4.727159   3.111318   2.555440   3.064982   2.503529
    23  H    6.754279   5.258736   4.946407   4.532860   4.169267
    24  H    6.512415   4.925663   5.228583   4.178440   4.528795
    25  H    8.358202   7.155339   7.156448   5.862840   5.864046
    26  H    7.497592   6.711774   6.471662   5.066738   4.746563
    27  H    6.516812   6.145902   6.478706   4.052458   4.537709
    28  H    8.253278   7.706387   7.948965   5.759966   6.078195
    29  H    6.878122   5.808803   6.590908   4.515352   5.478128
    30  H    8.535519   7.405498   7.993335   6.084058   6.782032
    31  H    8.536380   7.842927   8.828319   6.366781   7.538903
    32  H    7.417503   7.151840   8.020775   5.256098   6.380266
    33  H    8.987242   8.510160   9.220235   6.663787   7.543034
                   21         22         23         24         25
    21  H    0.000000
    22  H    1.785543   0.000000
    23  H    2.993788   2.393426   0.000000
    24  H    2.373112   2.955437   1.775475   0.000000
    25  H    4.686946   4.686857   2.471532   2.495648   0.000000
    26  H    4.559272   4.191672   2.443713   3.062244   1.764207
    27  H    4.234390   4.708475   3.806941   3.249836   3.071436
    28  H    5.531820   5.867365   4.284124   3.860653   2.475126
    29  H    3.609162   4.777775   3.870889   2.307538   3.222833
    30  H    5.015864   5.856655   4.250566   3.020623   2.568643
    31  H    5.936904   7.200896   6.209521   4.721590   4.874478
    32  H    5.463673   6.571054   5.843007   4.606991   4.756494
    33  H    6.488916   7.404446   6.111388   5.009676   4.346583
                   26         27         28         29         30
    26  H    0.000000
    27  H    2.468083   0.000000
    28  H    2.406896   1.757380   0.000000
    29  H    3.834537   2.495701   3.065696   0.000000
    30  H    3.745128   3.068343   2.528089   1.765912   0.000000
    31  H    5.566100   3.770154   3.723838   2.462633   2.475315
    32  H    4.857222   2.583135   3.054276   2.496468   3.065500
    33  H    4.798009   3.150153   2.520545   3.059875   2.501951
                   31         32         33
    31  H    0.000000
    32  H    1.772131   0.000000
    33  H    1.771676   1.774793   0.000000
 Stoichiometry    C10H22O
 Framework group  C1[X(C10H22O)]
 Deg. of freedom    93
 Full point group                 C1      NOp   1
 Largest Abelian subgroup         C1      NOp   1
 Largest concise Abelian subgroup C1      NOp   1
                         Standard orientation:                         
 ---------------------------------------------------------------------
 Center     Atomic      Atomic             Coordinates (Angstroms)
 Number     Number       Type             X           Y           Z
 ---------------------------------------------------------------------
      1          6           0        5.570155    0.728565   -0.179185
      2          6           0        4.218779    0.685913    0.516079
      3          6           0        3.178348   -0.051086   -0.326894
      4          6           0        1.822665   -0.091630    0.374811
      5          6           0        0.778398   -0.824730   -0.459032
      6          8           0       -0.452810   -0.817651    0.261104
      7          6           0       -1.488783   -1.485906   -0.454386
      8          6           0       -2.781407   -1.432096    0.355651
      9          6           0       -3.255266   -0.016924    0.705981
     10          6           0       -3.600161    0.827819   -0.520880
     11          6           0       -4.174952    2.178056   -0.120514
     12          1           0        6.298811    1.259947    0.441076
     13          1           0        5.500493    1.246879   -1.140871
     14          1           0        5.950567   -0.281895   -0.359852
     15          1           0        4.329747    0.190476    1.487643
     16          1           0        3.882171    1.710805    0.710896
     17          1           0        3.074130    0.445969   -1.299048
     18          1           0        3.521630   -1.074170   -0.522391
     19          1           0        1.471308    0.927088    0.581769
     20          1           0        1.915246   -0.581352    1.352261
     21          1           0        0.641478   -0.321035   -1.422901
     22          1           0        1.092571   -1.859544   -0.636982
     23          1           0       -1.203911   -2.533218   -0.608316
     24          1           0       -1.626203   -1.020395   -1.436173
     25          1           0       -3.571658   -1.962194   -0.188582
     26          1           0       -2.623523   -1.969379    1.299174
     27          1           0       -2.492650    0.495225    1.304922
     28          1           0       -4.144186   -0.104228    1.343223
     29          1           0       -2.706139    0.995831   -1.130718
     30          1           0       -4.328307    0.298129   -1.145842
     31          1           0       -4.411529    2.768382   -1.011265
     32          1           0       -3.459307    2.745293    0.483121
     33          1           0       -5.094913    2.056700    0.460241
 ---------------------------------------------------------------------
 Rotational constants (GHZ):           2.0868695           0.2944219           0.2708379
 Standard basis: 6-31G(2df,p) (6D, 7F)
 There are   451 symmetry adapted cartesian basis functions of A   symmetry.
 There are   418 symmetry adapted basis functions of A   symmetry.
   418 basis functions,   638 primitive gaussians,   451 cartesian basis functions
    45 alpha electrons       45 beta electrons
       nuclear repulsion energy       627.5124492371 Hartrees.
 NAtoms=   33 NActive=   33 NUniq=   33 SFac= 1.00D+00 NAtFMM=   60 NAOKFM=F Big=F
 Integral buffers will be    131072 words long.
 Raffenetti 2 integral format.
 Two-electron integral symmetry is turned on.
 One-electron integrals computed using PRISM.
 NBasis=   418 RedAO= T EigKep=  6.62D-04  NBF=   418
 NBsUse=   418 1.00D-06 EigRej= -1.00D+00 NBFU=   418
 ExpMin= 1.61D-01 ExpMax= 5.48D+03 ExpMxC= 8.25D+02 IAcc=3 IRadAn=         5 AccDes= 0.00D+00
 Harris functional with IExCor=  402 and IRadAn=       5 diagonalized for initial guess.
 HarFok:  IExCor=  402 AccDes= 0.00D+00 IRadAn=         5 IDoV= 1 UseB2=F ITyADJ=14
 ICtDFT=  3500011 ScaDFX=  1.000000  1.000000  1.000000  1.000000
 FoFCou: FMM=F IPFlag=           0 FMFlag=      100000 FMFlg1=           0
         NFxFlg=           0 DoJE=T BraDBF=F KetDBF=T FulRan=T
         wScrn=  0.000000 ICntrl=       500 IOpCl=  0 I1Cent=   200000004 NGrid=           0
         NMat0=    1 NMatS0=      1 NMatT0=    0 NMatD0=    1 NMtDS0=    0 NMtDT0=    0
 Petite list used in FoFCou.
 Requested convergence on RMS density matrix=1.00D-08 within 400 cycles.
 Requested convergence on MAX density matrix=1.00D-06.
 Requested convergence on             energy=1.00D-06.
 No special actions if energy rises.
 Integral accuracy reduced to 1.0D-05 until final iterations.
 Initial convergence to 1.0D-05 achieved.  Increase integral accuracy.
 SCF Done:  E(RB3LYP) =  -469.582162604     A.U. after   12 cycles
            NFock= 12  Conv=0.33D-08     -V/T= 2.0085
 QCSCF skips out because SCF is already converged.

 **********************************************************************

            Population analysis using the SCF Density.

 **********************************************************************

 Orbital symmetries:
       Occupied  (A) (A) (A) (A) (A) (A) (A) (A) (A) (A) (A) (A)
                 (A) (A) (A) (A) (A) (A) (A) (A) (A) (A) (A) (A)
                 (A) (A) (A) (A) (A) (A) (A) (A) (A) (A) (A) (A)
                 (A) (A) (A) (A) (A) (A) (A) (A) (A)
       Virtual   (A) (A) (A) (A) (A) (A) (A) (A) (A) (A) (A) (A)
                 (A) (A) (A) (A) (A) (A) (A) (A) (A) (A) (A) (A)
                 (A) (A) (A) (A) (A) (A) (A) (A) (A) (A) (A) (A)
                 (A) (A) (A) (A) (A) (A) (A) (A) (A) (A) (A) (A)
                 (A) (A) (A) (A) (A) (A) (A) (A) (A) (A) (A) (A)
                 (A) (A) (A) (A) (A) (A) (A) (A) (A) (A) (A) (A)
                 (A) (A) (A) (A) (A) (A) (A) (A) (A) (A) (A) (A)
                 (A) (A) (A) (A) (A) (A) (A) (A) (A) (A) (A) (A)
                 (A) (A) (A) (A) (A) (A) (A) (A) (A) (A) (A) (A)
                 (A) (A) (A) (A) (A) (A) (A) (A) (A) (A) (A) (A)
                 (A) (A) (A) (A) (A) (A) (A) (A) (A) (A) (A) (A)
                 (A) (A) (A) (A) (A) (A) (A) (A) (A) (A) (A) (A)
                 (A) (A) (A) (A) (A) (A) (A) (A) (A) (A) (A) (A)
                 (A) (A) (A) (A) (A) (A) (A) (A) (A) (A) (A) (A)
                 (A) (A) (A) (A) (A) (A) (A) (A) (A) (A) (A) (A)
                 (A) (A) (A) (A) (A) (A) (A) (A) (A) (A) (A) (A)
                 (A) (A) (A) (A) (A) (A) (A) (A) (A) (A) (A) (A)
                 (A) (A) (A) (A) (A) (A) (A) (A) (A) (A) (A) (A)
                 (A) (A) (A) (A) (A) (A) (A) (A) (A) (A) (A) (A)
                 (A) (A) (A) (A) (A) (A) (A) (A) (A) (A) (A) (A)
                 (A) (A) (A) (A) (A) (A) (A) (A) (A) (A) (A) (A)
                 (A) (A) (A) (A) (A) (A) (A) (A) (A) (A) (A) (A)
                 (A) (A) (A) (A) (A) (A) (A) (A) (A) (A) (A) (A)
                 (A) (A) (A) (A) (A) (A) (A) (A) (A) (A) (A) (A)
                 (A) (A) (A) (A) (A) (A) (A) (A) (A) (A) (A) (A)
                 (A) (A) (A) (A) (A) (A) (A) (A) (A) (A) (A) (A)
                 (A) (A) (A) (A) (A) (A) (A) (A) (A) (A) (A) (A)
                 (A) (A) (A) (A) (A) (A) (A) (A) (A) (A) (A) (A)
                 (A) (A) (A) (A) (A) (A) (A) (A) (A) (A) (A) (A)
                 (A) (A) (A) (A) (A) (A) (A) (A) (A) (A) (A) (A)
                 (A) (A) (A) (A) (A) (A) (A) (A) (A) (A) (A) (A)
                 (A)
 The electronic state is 1-A.
 Alpha  occ. eigenvalues --  -19.12938 -10.21869 -10.21736 -10.17604 -10.17528
 Alpha  occ. eigenvalues --  -10.17282 -10.17269 -10.16992 -10.16872 -10.16701
 Alpha  occ. eigenvalues --  -10.16484  -1.01743  -0.80422  -0.79294  -0.75449
 Alpha  occ. eigenvalues --   -0.73071  -0.67624  -0.64766  -0.60009  -0.59170
 Alpha  occ. eigenvalues --   -0.57592  -0.55418  -0.48845  -0.48162  -0.46603
 Alpha  occ. eigenvalues --   -0.45547  -0.43451  -0.42843  -0.41886  -0.41197
 Alpha  occ. eigenvalues --   -0.39566  -0.38904  -0.37282  -0.36988  -0.35620
 Alpha  occ. eigenvalues --   -0.34490  -0.33639  -0.33246  -0.32992  -0.32282
 Alpha  occ. eigenvalues --   -0.31948  -0.30704  -0.30482  -0.30067  -0.24758
 Alpha virt. eigenvalues --    0.08169   0.09067   0.10943   0.11505   0.11956
 Alpha virt. eigenvalues --    0.12452   0.13506   0.13821   0.14714   0.15511
 Alpha virt. eigenvalues --    0.16643   0.17346   0.17618   0.17887   0.18422
 Alpha virt. eigenvalues --    0.19172   0.19543   0.19672   0.20078   0.20577
 Alpha virt. eigenvalues --    0.20790   0.21288   0.21608   0.22218   0.22731
 Alpha virt. eigenvalues --    0.24845   0.25131   0.25785   0.26407   0.27478
 Alpha virt. eigenvalues --    0.28854   0.31211   0.41397   0.46004   0.46882
 Alpha virt. eigenvalues --    0.46923   0.48200   0.49597   0.51109   0.51684
 Alpha virt. eigenvalues --    0.51996   0.52280   0.52648   0.53264   0.54879
 Alpha virt. eigenvalues --    0.56143   0.57018   0.58172   0.59212   0.59885
 Alpha virt. eigenvalues --    0.60386   0.62184   0.63198   0.64083   0.64986
 Alpha virt. eigenvalues --    0.66128   0.67434   0.68852   0.70166   0.71296
 Alpha virt. eigenvalues --    0.71754   0.72402   0.73582   0.73806   0.74403
 Alpha virt. eigenvalues --    0.74617   0.75352   0.75581   0.76230   0.76944
 Alpha virt. eigenvalues --    0.77364   0.78365   0.78579   0.79283   0.79903
 Alpha virt. eigenvalues --    0.81400   0.81888   0.81942   0.83244   0.84262
 Alpha virt. eigenvalues --    0.85053   0.86146   0.86630   0.87513   0.88393
 Alpha virt. eigenvalues --    0.89501   0.90230   0.90994   0.91299   0.97548
 Alpha virt. eigenvalues --    0.99359   1.02623   1.05614   1.07195   1.09543
 Alpha virt. eigenvalues --    1.11260   1.12315   1.18289   1.19489   1.20327
 Alpha virt. eigenvalues --    1.20773   1.21332   1.23003   1.23357   1.26008
 Alpha virt. eigenvalues --    1.26127   1.28157   1.32139   1.33462   1.34729
 Alpha virt. eigenvalues --    1.35938   1.36667   1.38318   1.39450   1.39728
 Alpha virt. eigenvalues --    1.41913   1.43132   1.44826   1.45754   1.49805
 Alpha virt. eigenvalues --    1.51937   1.52697   1.54560   1.55535   1.56350
 Alpha virt. eigenvalues --    1.57615   1.58262   1.60551   1.61397   1.63131
 Alpha virt. eigenvalues --    1.65682   1.68525   1.69182   1.70398   1.72756
 Alpha virt. eigenvalues --    1.73937   1.75755   1.77834   1.80266   1.81613
 Alpha virt. eigenvalues --    1.82905   1.83686   1.84772   1.86976   1.88534
 Alpha virt. eigenvalues --    1.89181   1.92005   1.93640   1.94608   1.95181
 Alpha virt. eigenvalues --    1.95934   1.96737   1.98641   2.00165   2.13370
 Alpha virt. eigenvalues --    2.15662   2.16969   2.18999   2.19822   2.20254
 Alpha virt. eigenvalues --    2.20847   2.21760   2.23010   2.24004   2.27026
 Alpha virt. eigenvalues --    2.30220   2.31958   2.32335   2.35397   2.35842
 Alpha virt. eigenvalues --    2.37754   2.39221   2.40408   2.43828   2.45853
 Alpha virt. eigenvalues --    2.46787   2.47833   2.50579   2.54607   2.59001
 Alpha virt. eigenvalues --    2.63455   2.65514   2.66937   2.70243   2.71421
 Alpha virt. eigenvalues --    2.71664   2.74102   2.75131   2.75442   2.75896
 Alpha virt. eigenvalues --    2.76213   2.76597   2.78285   2.79555   2.79965
 Alpha virt. eigenvalues --    2.81607   2.81995   2.82755   2.83188   2.84045
 Alpha virt. eigenvalues --    2.85615   2.86595   2.87341   2.88984   2.89628
 Alpha virt. eigenvalues --    2.90506   2.91231   2.91637   2.92803   2.93033
 Alpha virt. eigenvalues --    2.93429   2.94518   2.95008   2.97587   2.98186
 Alpha virt. eigenvalues --    3.01874   3.02547   3.04595   3.05614   3.07265
 Alpha virt. eigenvalues --    3.09702   3.11538   3.12847   3.17562   3.20060
 Alpha virt. eigenvalues --    3.22027   3.24058   3.26120   3.27575   3.29722
 Alpha virt. eigenvalues --    3.30523   3.31595   3.35633   3.35973   3.37428
 Alpha virt. eigenvalues --    3.38992   3.39330   3.40653   3.43387   3.45158
 Alpha virt. eigenvalues --    3.46332   3.48137   3.51071   3.52403   3.54763
 Alpha virt. eigenvalues --    3.55005   3.56937   3.57335   3.58085   3.60771
 Alpha virt. eigenvalues --    3.61532   3.62255   3.62355   3.62744   3.67707
 Alpha virt. eigenvalues --    3.70496   3.71555   3.72158   3.72691   3.75357
 Alpha virt. eigenvalues --    3.75710   3.77290   3.78646   3.80721   3.81380
 Alpha virt. eigenvalues --    3.81841   3.83344   3.85704   3.88897   3.91137
 Alpha virt. eigenvalues --    3.93559   3.95765   3.97061   4.03460   4.06563
 Alpha virt. eigenvalues --    4.11131   4.12457   4.23586   4.33068   4.35812
 Alpha virt. eigenvalues --    4.38016   4.38537   4.41214   4.42700   4.43954
 Alpha virt. eigenvalues --    4.44495   4.45861   4.46250   4.48293   4.48760
 Alpha virt. eigenvalues --    4.49111   4.50634   4.52039   4.53493   4.54350
 Alpha virt. eigenvalues --    4.54735   4.55745   4.56901   4.58043   4.58903
 Alpha virt. eigenvalues --    4.59626   4.60258   4.61844   4.62546   4.62878
 Alpha virt. eigenvalues --    4.63064   4.63965   4.65011   4.65741   4.67170
 Alpha virt. eigenvalues --    4.68903   4.70035   4.71336   4.72079   4.72688
 Alpha virt. eigenvalues --    4.73118   4.74533   4.74926   4.77432   4.77959
 Alpha virt. eigenvalues --    4.78205   4.81300   4.81797   4.82860   4.84145
 Alpha virt. eigenvalues --    4.86601   4.87560   4.88287   4.89488   4.90898
 Alpha virt. eigenvalues --    4.91545   4.93760   4.94422   4.96830   4.96957
 Alpha virt. eigenvalues --    4.98217   4.99506   5.04819   5.10405   5.12300
 Alpha virt. eigenvalues --    5.20205   5.28443   5.29852   5.34967   5.39308
 Alpha virt. eigenvalues --    5.42741   5.43878   5.46786   5.47120   5.48954
 Alpha virt. eigenvalues --    5.50211   5.57422   5.58435   5.65011   5.87695
 Alpha virt. eigenvalues --    5.87881   5.96186   6.02509   6.04309   6.19238
 Alpha virt. eigenvalues --    6.28126   7.11104  11.11622  11.17496  11.47246
 Alpha virt. eigenvalues --   11.57727  11.85552  11.92483  12.11822  12.26521
 Alpha virt. eigenvalues --   12.38180  12.39919  13.51053
          Condensed to atoms (all electrons):
               1          2          3          4          5          6
     1  C    4.955509   0.404805  -0.037236   0.001747  -0.000147   0.000000
     2  C    0.404805   4.760301   0.437124  -0.030179   0.001566  -0.000022
     3  C   -0.037236   0.437124   4.807027   0.384075  -0.037938   0.001852
     4  C    0.001747  -0.030179   0.384075   4.844066   0.434679  -0.028485
     5  C   -0.000147   0.001566  -0.037938   0.434679   4.747458   0.349094
     6  O    0.000000  -0.000022   0.001852  -0.028485   0.349094   7.736277
     7  C   -0.000000  -0.000000  -0.000272   0.003898  -0.068597   0.343670
     8  C    0.000000  -0.000000   0.000001  -0.000284   0.004166  -0.034997
     9  C   -0.000000  -0.000000   0.000000  -0.000007   0.000366   0.001098
    10  C   -0.000000  -0.000000  -0.000000  -0.000000  -0.000041  -0.001230
    11  C    0.000000  -0.000000   0.000000   0.000000  -0.000000  -0.000003
    12  H    0.371439  -0.021638   0.003505  -0.000155   0.000001  -0.000000
    13  H    0.378987  -0.028926  -0.004522   0.000163   0.000005   0.000000
    14  H    0.378996  -0.028921  -0.004519   0.000163   0.000005   0.000000
    15  H   -0.036260   0.371404  -0.033380  -0.002256   0.000172   0.000000
    16  H   -0.036281   0.371353  -0.033378  -0.002255   0.000175   0.000001
    17  H   -0.002352  -0.035119   0.366029  -0.033807  -0.002656   0.000024
    18  H   -0.002347  -0.035105   0.366136  -0.033765  -0.002664   0.000025
    19  H    0.000120  -0.003355  -0.029043   0.360309  -0.029285   0.002975
    20  H    0.000118  -0.003415  -0.029083   0.360397  -0.028792   0.002960
    21  H    0.000012  -0.000021   0.000489  -0.032655   0.346952  -0.030528
    22  H    0.000012  -0.000008   0.000704  -0.031521   0.346768  -0.030282
    23  H    0.000000   0.000000   0.000030   0.000251  -0.005722  -0.030894
    24  H    0.000000   0.000000   0.000032   0.000227  -0.006632  -0.034933
    25  H   -0.000000   0.000000  -0.000000   0.000003  -0.000183   0.002145
    26  H    0.000000   0.000000   0.000000   0.000012  -0.000069   0.000627
    27  H    0.000000   0.000000   0.000001   0.000056  -0.000322   0.010090
    28  H    0.000000  -0.000000   0.000000  -0.000000  -0.000000   0.000195
    29  H    0.000000   0.000000   0.000000  -0.000015   0.000174   0.001512
    30  H    0.000000   0.000000   0.000000   0.000000   0.000001   0.000036
    31  H   -0.000000  -0.000000  -0.000000  -0.000000  -0.000000  -0.000000
    32  H   -0.000000  -0.000000  -0.000000  -0.000000   0.000000  -0.000002
    33  H   -0.000000  -0.000000  -0.000000  -0.000000   0.000000  -0.000000
               7          8          9         10         11         12
     1  C   -0.000000   0.000000  -0.000000  -0.000000   0.000000   0.371439
     2  C   -0.000000  -0.000000  -0.000000  -0.000000  -0.000000  -0.021638
     3  C   -0.000272   0.000001   0.000000  -0.000000   0.000000   0.003505
     4  C    0.003898  -0.000284  -0.000007  -0.000000   0.000000  -0.000155
     5  C   -0.068597   0.004166   0.000366  -0.000041  -0.000000   0.000001
     6  O    0.343670  -0.034997   0.001098  -0.001230  -0.000003  -0.000000
     7  C    4.737613   0.422028  -0.027075  -0.002654   0.000161   0.000000
     8  C    0.422028   4.886069   0.397357  -0.033270   0.003213  -0.000000
     9  C   -0.027075   0.397357   4.783763   0.438532  -0.037148  -0.000000
    10  C   -0.002654  -0.033270   0.438532   4.747347   0.413715   0.000000
    11  C    0.000161   0.003213  -0.037148   0.413715   4.941210  -0.000000
    12  H    0.000000  -0.000000  -0.000000   0.000000  -0.000000   0.607957
    13  H    0.000000  -0.000000   0.000000   0.000000   0.000000  -0.031949
    14  H    0.000000   0.000000  -0.000000   0.000000   0.000000  -0.031944
    15  H    0.000000   0.000000   0.000000  -0.000000   0.000000  -0.002442
    16  H    0.000000   0.000000  -0.000000   0.000000   0.000000  -0.002443
    17  H    0.000008   0.000000  -0.000000  -0.000000   0.000000  -0.000058
    18  H    0.000007   0.000000  -0.000000  -0.000000  -0.000000  -0.000058
    19  H    0.000068  -0.000003  -0.000005  -0.000001  -0.000000   0.000003
    20  H    0.000160   0.000018  -0.000004   0.000000   0.000000   0.000003
    21  H   -0.005519   0.000449  -0.000157   0.000031   0.000000   0.000000
    22  H   -0.006759  -0.000072   0.000062  -0.000005  -0.000000   0.000000
    23  H    0.354944  -0.033341   0.006074  -0.000156  -0.000006   0.000000
    24  H    0.352261  -0.032031  -0.010872   0.004056  -0.000161   0.000000
    25  H   -0.029187   0.357751  -0.032272  -0.006507   0.000115   0.000000
    26  H   -0.027512   0.353739  -0.029140   0.004140  -0.000190  -0.000000
    27  H   -0.009689  -0.029348   0.368430  -0.034541  -0.001876   0.000000
    28  H    0.004008  -0.029925   0.363282  -0.038630  -0.003554  -0.000000
    29  H    0.001448  -0.004627  -0.032017   0.371814  -0.034577   0.000000
    30  H   -0.000900  -0.001783  -0.036674   0.369059  -0.035403   0.000000
    31  H    0.000006  -0.000197   0.003726  -0.022805   0.370930  -0.000000
    32  H   -0.000012   0.000186  -0.003696  -0.029489   0.379719  -0.000000
    33  H    0.000005   0.000090  -0.004609  -0.029439   0.378844  -0.000000
              13         14         15         16         17         18
     1  C    0.378987   0.378996  -0.036260  -0.036281  -0.002352  -0.002347
     2  C   -0.028926  -0.028921   0.371404   0.371353  -0.035119  -0.035105
     3  C   -0.004522  -0.004519  -0.033380  -0.033378   0.366029   0.366136
     4  C    0.000163   0.000163  -0.002256  -0.002255  -0.033807  -0.033765
     5  C    0.000005   0.000005   0.000172   0.000175  -0.002656  -0.002664
     6  O    0.000000   0.000000   0.000000   0.000001   0.000024   0.000025
     7  C    0.000000   0.000000   0.000000   0.000000   0.000008   0.000007
     8  C   -0.000000   0.000000   0.000000   0.000000   0.000000   0.000000
     9  C    0.000000  -0.000000   0.000000  -0.000000  -0.000000  -0.000000
    10  C    0.000000   0.000000  -0.000000   0.000000  -0.000000  -0.000000
    11  C    0.000000   0.000000   0.000000   0.000000   0.000000  -0.000000
    12  H   -0.031949  -0.031944  -0.002442  -0.002443  -0.000058  -0.000058
    13  H    0.602415  -0.033504   0.005690  -0.004451   0.004931  -0.000391
    14  H   -0.033504   0.602348  -0.004449   0.005691  -0.000391   0.004929
    15  H    0.005690  -0.004449   0.642465  -0.041064   0.006201  -0.005544
    16  H   -0.004451   0.005691  -0.041064   0.642675  -0.005546   0.006200
    17  H    0.004931  -0.000391   0.006201  -0.005546   0.648639  -0.043191
    18  H   -0.000391   0.004929  -0.005544   0.006200  -0.043191   0.648264
    19  H    0.000005   0.000009  -0.000444   0.004842  -0.005442   0.006132
    20  H    0.000009   0.000005   0.004840  -0.000444   0.006128  -0.005432
    21  H   -0.000002   0.000001   0.000004   0.000008   0.005032  -0.000534
    22  H    0.000001  -0.000002   0.000008   0.000004  -0.000534   0.004988
    23  H    0.000000  -0.000000   0.000000  -0.000000   0.000000  -0.000001
    24  H   -0.000000   0.000000  -0.000000   0.000000  -0.000001   0.000000
    25  H   -0.000000  -0.000000  -0.000000  -0.000000   0.000000   0.000000
    26  H   -0.000000  -0.000000  -0.000000   0.000000  -0.000000   0.000000
    27  H   -0.000000  -0.000000  -0.000000  -0.000000   0.000000   0.000000
    28  H    0.000000  -0.000000   0.000000  -0.000000   0.000000   0.000000
    29  H    0.000000  -0.000000   0.000000  -0.000000  -0.000000   0.000000
    30  H   -0.000000  -0.000000   0.000000  -0.000000   0.000000   0.000000
    31  H    0.000000  -0.000000   0.000000   0.000000   0.000000   0.000000
    32  H    0.000000   0.000000   0.000000   0.000000  -0.000000   0.000000
    33  H    0.000000   0.000000   0.000000  -0.000000  -0.000000  -0.000000
              19         20         21         22         23         24
     1  C    0.000120   0.000118   0.000012   0.000012   0.000000   0.000000
     2  C   -0.003355  -0.003415  -0.000021  -0.000008   0.000000   0.000000
     3  C   -0.029043  -0.029083   0.000489   0.000704   0.000030   0.000032
     4  C    0.360309   0.360397  -0.032655  -0.031521   0.000251   0.000227
     5  C   -0.029285  -0.028792   0.346952   0.346768  -0.005722  -0.006632
     6  O    0.002975   0.002960  -0.030528  -0.030282  -0.030894  -0.034933
     7  C    0.000068   0.000160  -0.005519  -0.006759   0.354944   0.352261
     8  C   -0.000003   0.000018   0.000449  -0.000072  -0.033341  -0.032031
     9  C   -0.000005  -0.000004  -0.000157   0.000062   0.006074  -0.010872
    10  C   -0.000001   0.000000   0.000031  -0.000005  -0.000156   0.004056
    11  C   -0.000000   0.000000   0.000000  -0.000000  -0.000006  -0.000161
    12  H    0.000003   0.000003   0.000000   0.000000   0.000000   0.000000
    13  H    0.000005   0.000009  -0.000002   0.000001   0.000000  -0.000000
    14  H    0.000009   0.000005   0.000001  -0.000002  -0.000000   0.000000
    15  H   -0.000444   0.004840   0.000004   0.000008   0.000000  -0.000000
    16  H    0.004842  -0.000444   0.000008   0.000004  -0.000000   0.000000
    17  H   -0.005442   0.006128   0.005032  -0.000534   0.000000  -0.000001
    18  H    0.006132  -0.005432  -0.000534   0.004988  -0.000001   0.000000
    19  H    0.634062  -0.042438  -0.007229   0.006746   0.000041  -0.000051
    20  H   -0.042438   0.632725   0.006713  -0.007196  -0.000049   0.000044
    21  H   -0.007229   0.006713   0.682506  -0.061015  -0.002737   0.014346
    22  H    0.006746  -0.007196  -0.061015   0.683703   0.013577  -0.003004
    23  H    0.000041  -0.000049  -0.002737   0.013577   0.682434  -0.059008
    24  H   -0.000051   0.000044   0.014346  -0.003004  -0.059008   0.681475
    25  H    0.000000   0.000000   0.000015  -0.000000  -0.000107  -0.000075
    26  H   -0.000001   0.000004   0.000042  -0.000051  -0.006523   0.006808
    27  H    0.000096   0.000005   0.000018   0.000026   0.000245   0.000304
    28  H    0.000000  -0.000000  -0.000001   0.000001  -0.000113  -0.000064
    29  H    0.000013  -0.000000  -0.000020   0.000014   0.000111   0.001085
    30  H    0.000000  -0.000000  -0.000003  -0.000000  -0.000022   0.000567
    31  H    0.000000   0.000000  -0.000000  -0.000000  -0.000000   0.000009
    32  H    0.000000  -0.000000  -0.000001  -0.000000  -0.000000   0.000007
    33  H    0.000000  -0.000000   0.000000   0.000000   0.000000   0.000001
              25         26         27         28         29         30
     1  C   -0.000000   0.000000   0.000000   0.000000   0.000000   0.000000
     2  C    0.000000   0.000000   0.000000  -0.000000   0.000000   0.000000
     3  C   -0.000000   0.000000   0.000001   0.000000   0.000000   0.000000
     4  C    0.000003   0.000012   0.000056  -0.000000  -0.000015   0.000000
     5  C   -0.000183  -0.000069  -0.000322  -0.000000   0.000174   0.000001
     6  O    0.002145   0.000627   0.010090   0.000195   0.001512   0.000036
     7  C   -0.029187  -0.027512  -0.009689   0.004008   0.001448  -0.000900
     8  C    0.357751   0.353739  -0.029348  -0.029925  -0.004627  -0.001783
     9  C   -0.032272  -0.029140   0.368430   0.363282  -0.032017  -0.036674
    10  C   -0.006507   0.004140  -0.034541  -0.038630   0.371814   0.369059
    11  C    0.000115  -0.000190  -0.001876  -0.003554  -0.034577  -0.035403
    12  H    0.000000  -0.000000   0.000000  -0.000000   0.000000   0.000000
    13  H   -0.000000  -0.000000  -0.000000   0.000000   0.000000  -0.000000
    14  H   -0.000000  -0.000000  -0.000000  -0.000000  -0.000000  -0.000000
    15  H   -0.000000  -0.000000  -0.000000   0.000000   0.000000   0.000000
    16  H   -0.000000   0.000000  -0.000000  -0.000000  -0.000000  -0.000000
    17  H    0.000000  -0.000000   0.000000   0.000000  -0.000000   0.000000
    18  H    0.000000   0.000000   0.000000   0.000000   0.000000   0.000000
    19  H    0.000000  -0.000001   0.000096   0.000000   0.000013   0.000000
    20  H    0.000000   0.000004   0.000005  -0.000000  -0.000000  -0.000000
    21  H    0.000015   0.000042   0.000018  -0.000001  -0.000020  -0.000003
    22  H   -0.000000  -0.000051   0.000026   0.000001   0.000014  -0.000000
    23  H   -0.000107  -0.006523   0.000245  -0.000113   0.000111  -0.000022
    24  H   -0.000075   0.006808   0.000304  -0.000064   0.001085   0.000567
    25  H    0.645848  -0.035701   0.005941  -0.003997  -0.000338   0.005387
    26  H   -0.035701   0.641912  -0.002305  -0.003352  -0.000078   0.000010
    27  H    0.005941  -0.002305   0.618872  -0.040290  -0.005795   0.006055
    28  H   -0.003997  -0.003352  -0.040290   0.661751   0.006439  -0.004910
    29  H   -0.000338  -0.000078  -0.005795   0.006439   0.640806  -0.042868
    30  H    0.005387   0.000010   0.006055  -0.004910  -0.042868   0.655752
    31  H    0.000000   0.000003  -0.000074  -0.000011  -0.002482  -0.002505
    32  H    0.000010   0.000003   0.004505  -0.000365  -0.004523   0.005776
    33  H    0.000000  -0.000005  -0.000428   0.005485   0.005631  -0.004575
              31         32         33
     1  C   -0.000000  -0.000000  -0.000000
     2  C   -0.000000  -0.000000  -0.000000
     3  C   -0.000000  -0.000000  -0.000000
     4  C   -0.000000  -0.000000  -0.000000
     5  C   -0.000000   0.000000   0.000000
     6  O   -0.000000  -0.000002  -0.000000
     7  C    0.000006  -0.000012   0.000005
     8  C   -0.000197   0.000186   0.000090
     9  C    0.003726  -0.003696  -0.004609
    10  C   -0.022805  -0.029489  -0.029439
    11  C    0.370930   0.379719   0.378844
    12  H   -0.000000  -0.000000  -0.000000
    13  H    0.000000   0.000000   0.000000
    14  H   -0.000000   0.000000   0.000000
    15  H    0.000000   0.000000   0.000000
    16  H    0.000000   0.000000  -0.000000
    17  H    0.000000  -0.000000  -0.000000
    18  H    0.000000   0.000000  -0.000000
    19  H    0.000000   0.000000   0.000000
    20  H    0.000000  -0.000000  -0.000000
    21  H   -0.000000  -0.000001   0.000000
    22  H   -0.000000  -0.000000   0.000000
    23  H   -0.000000  -0.000000   0.000000
    24  H    0.000009   0.000007   0.000001
    25  H    0.000000   0.000010   0.000000
    26  H    0.000003   0.000003  -0.000005
    27  H   -0.000074   0.004505  -0.000428
    28  H   -0.000011  -0.000365   0.005485
    29  H   -0.002482  -0.004523   0.005631
    30  H   -0.002505   0.005776  -0.004575
    31  H    0.613725  -0.032217  -0.032445
    32  H   -0.032217   0.599985  -0.033333
    33  H   -0.032445  -0.033333   0.604612
 Mulliken charges:
               1
     1  C   -0.377121
     2  C   -0.159845
     3  C   -0.157633
     4  C   -0.194663
     5  C   -0.048534
     6  O   -0.261206
     7  C   -0.042109
     8  C   -0.225190
     9  C   -0.149013
    10  C   -0.149924
    11  C   -0.374989
    12  H    0.107778
    13  H    0.111537
    14  H    0.111583
    15  H    0.095053
    16  H    0.094913
    17  H    0.092104
    18  H    0.092349
    19  H    0.101874
    20  H    0.102723
    21  H    0.083803
    22  H    0.083833
    23  H    0.080972
    24  H    0.085610
    25  H    0.091151
    26  H    0.097626
    27  H    0.110024
    28  H    0.084052
    29  H    0.098293
    30  H    0.087000
    31  H    0.104337
    32  H    0.113447
    33  H    0.110166
 Sum of Mulliken charges =  -0.00000
 Mulliken charges with hydrogens summed into heavy atoms:
               1
     1  C   -0.046223
     2  C    0.030121
     3  C    0.026820
     4  C    0.009934
     5  C    0.119102
     6  O   -0.261206
     7  C    0.124472
     8  C   -0.036413
     9  C    0.045063
    10  C    0.035368
    11  C   -0.047039
 Electronic spatial extent (au):  <R**2>=           4230.5475
 Charge=             -0.0000 electrons
 Dipole moment (field-independent basis, Debye):
    X=              0.3317    Y=             -0.3581    Z=             -0.7667  Tot=              0.9089
 Quadrupole moment (field-independent basis, Debye-Ang):
   XX=            -71.3862   YY=            -71.7962   ZZ=            -72.7334
   XY=              1.0880   XZ=              0.9223   YZ=              0.4022
 Traceless Quadrupole moment (field-independent basis, Debye-Ang):
   XX=              0.5858   YY=              0.1758   ZZ=             -0.7615
   XY=              1.0880   XZ=              0.9223   YZ=              0.4022
 Octapole moment (field-independent basis, Debye-Ang**2):
  XXX=            -12.5663  YYY=             -7.5484  ZZZ=              1.6781  XYY=              3.2991
  XXY=             -9.3523  XXZ=              4.2919  XZZ=             -0.6281  YZZ=             -0.4352
  YYZ=             -0.2434  XYZ=             -0.4791
 Hexadecapole moment (field-independent basis, Debye-Ang**3):
 XXXX=          -5003.4646 YYYY=           -670.1782 ZZZZ=           -238.8012 XXXY=             16.1372
 XXXZ=             22.9792 YYYX=             14.9000 YYYZ=             -0.6116 ZZZX=              1.0415
 ZZZY=             -6.4690 XXYY=           -939.9311 XXZZ=           -859.8062 YYZZ=           -149.6554
 XXYZ=              0.3238 YYXZ=              2.5898 ZZXY=              1.8471
 N-N= 6.275124492371D+02 E-N=-2.343825599245D+03  KE= 4.656459330219D+02
 Calling FoFJK, ICntrl=      2127 FMM=F ISym2X=0 I1Cent= 0 IOpClX= 0 NMat=1 NMatS=1 NMatT=0.
 ***** Axes restored to original set *****
 -------------------------------------------------------------------
 Center     Atomic                   Forces (Hartrees/Bohr)
 Number     Number              X              Y              Z
 -------------------------------------------------------------------
      1        6           0.005032244   -0.002058433   -0.003494362
      2        6           0.002197488   -0.000702826    0.005466017
      3        6          -0.003194621    0.000972430   -0.008668225
      4        6          -0.002951492    0.001293475    0.003591155
      5        6          -0.008253879    0.002555650   -0.016825978
      6        8          -0.001235359   -0.000448002    0.009005929
      7        6           0.001926782    0.002289175   -0.009965569
      8        6           0.003671233    0.001191095   -0.008117618
      9        6          -0.000164518    0.000453657    0.004552651
     10        6          -0.000013702    0.000239930   -0.005134148
     11        6          -0.002438639   -0.005085534    0.001786851
     12        1           0.002196316   -0.000823650    0.001616097
     13        1           0.001001703   -0.000184455    0.000807962
     14        1           0.000864803   -0.000519590    0.000810076
     15        1          -0.001770298    0.000364811   -0.001160388
     16        1          -0.001573744    0.000874852   -0.001183289
     17        1           0.000804216   -0.000352866    0.001274762
     18        1           0.000869347   -0.000186842    0.001298541
     19        1          -0.000609813   -0.000282513    0.001430948
     20        1          -0.000222230    0.000722580    0.001370505
     21        1           0.000623105   -0.001769514    0.004456418
     22        1           0.001762896    0.001212605    0.004322093
     23        1           0.000940025    0.001604352    0.004440522
     24        1          -0.000113621   -0.002370283    0.003423939
     25        1           0.000948350    0.000080767    0.001687295
     26        1           0.000894192    0.001624649    0.002662162
     27        1           0.000447286    0.000462011    0.001501732
     28        1          -0.000582225   -0.000516767   -0.000506230
     29        1           0.000555648    0.001090026    0.001674089
     30        1           0.000525993    0.000767995    0.002044445
     31        1          -0.001169485   -0.001571463   -0.002078483
     32        1          -0.000637972   -0.000367750   -0.000944165
     33        1          -0.000330030   -0.000559576   -0.001145731
 -------------------------------------------------------------------
 Cartesian Forces:  Max     0.016825978 RMS     0.003264114

 GradGradGradGradGradGradGradGradGradGradGradGradGradGradGradGradGradGrad
 Berny optimization.
 FormGI is forming the generalized inverse of G from B-inverse, IUseBI=4.
 Internal  Forces:  Max     0.008873751 RMS     0.002163966
 Search for a local minimum.
 Step number   1 out of a maximum of  181
 All quantities printed in internal units (Hartrees-Bohrs-Radians)
 Mixed Optimization -- RFO/linear search
 Second derivative matrix not updated -- first step.
 ITU=  0
     Eigenvalues ---    0.00330   0.00383   0.00389   0.00408   0.00417
     Eigenvalues ---    0.00446   0.00487   0.00497   0.01343   0.01356
     Eigenvalues ---    0.03383   0.03451   0.03636   0.03697   0.03722
     Eigenvalues ---    0.03732   0.04819   0.04829   0.04873   0.04900
     Eigenvalues ---    0.04925   0.04929   0.05174   0.05358   0.05600
     Eigenvalues ---    0.05607   0.05696   0.05703   0.05860   0.05889
     Eigenvalues ---    0.08120   0.08141   0.08167   0.08244   0.08449
     Eigenvalues ---    0.08626   0.11200   0.11302   0.12040   0.12046
     Eigenvalues ---    0.12068   0.12127   0.12293   0.12420   0.13637
     Eigenvalues ---    0.13739   0.16000   0.16000   0.16000   0.16000
     Eigenvalues ---    0.16000   0.16000   0.21856   0.21898   0.21906
     Eigenvalues ---    0.21909   0.21920   0.21974   0.22015   0.22023
     Eigenvalues ---    0.25000   0.29151   0.29519   0.29564   0.29697
     Eigenvalues ---    0.29757   0.29964   0.30259   0.30334   0.33982
     Eigenvalues ---    0.33992   0.33994   0.33996   0.34037   0.34049
     Eigenvalues ---    0.34057   0.34103   0.34103   0.34104   0.34106
     Eigenvalues ---    0.34114   0.34122   0.34129   0.34217   0.34222
     Eigenvalues ---    0.34274   0.34276   0.34277   0.34280   0.34293
     Eigenvalues ---    0.34300   0.41516   0.41659
 RFO step:  Lambda=-4.04920820D-03 EMin= 3.29857590D-03
 Linear search not attempted -- first point.
 Iteration  1 RMS(Cart)=  0.03461281 RMS(Int)=  0.00033330
 Iteration  2 RMS(Cart)=  0.00071431 RMS(Int)=  0.00010185
 Iteration  3 RMS(Cart)=  0.00000018 RMS(Int)=  0.00010185
 Variable       Old X    -DE/DX   Delta X   Delta X   Delta X     New X
                                 (Linear)    (Quad)   (Total)
    R1        2.87302   0.00887   0.00000   0.02887   0.02887   2.90189
    R2        2.06839   0.00045   0.00000   0.00129   0.00129   2.06968
    R3        2.06866   0.00046   0.00000   0.00134   0.00134   2.07000
    R4        2.06870   0.00045   0.00000   0.00130   0.00130   2.07000
    R5        2.88842   0.00397   0.00000   0.01325   0.01325   2.90167
    R6        2.07157   0.00064   0.00000   0.00186   0.00186   2.07343
    R7        2.07152   0.00066   0.00000   0.00192   0.00192   2.07344
    R8        2.88572   0.00507   0.00000   0.01686   0.01686   2.90258
    R9        2.07268   0.00089   0.00000   0.00259   0.00259   2.07528
   R10        2.07247   0.00095   0.00000   0.00275   0.00275   2.07522
   R11        2.88034  -0.00025   0.00000  -0.00083  -0.00083   2.87951
   R12        2.07360  -0.00037   0.00000  -0.00106  -0.00106   2.07253
   R13        2.07337  -0.00032   0.00000  -0.00092  -0.00092   2.07245
   R14        2.69544  -0.00525   0.00000  -0.01253  -0.01253   2.68291
   R15        2.07138   0.00388   0.00000   0.01125   0.01125   2.08263
   R16        2.07114   0.00396   0.00000   0.01148   0.01148   2.08261
   R17        2.69359  -0.00600   0.00000  -0.01427  -0.01427   2.67932
   R18        2.88450  -0.00106   0.00000  -0.00352  -0.00352   2.88098
   R19        2.07157   0.00395   0.00000   0.01146   0.01146   2.08302
   R20        2.06965   0.00394   0.00000   0.01139   0.01139   2.08104
   R21        2.89689   0.00396   0.00000   0.01341   0.01341   2.91030
   R22        2.07155   0.00049   0.00000   0.00141   0.00141   2.07296
   R23        2.07340  -0.00000   0.00000  -0.00001  -0.00001   2.07339
   R24        2.88932   0.00375   0.00000   0.01253   0.01253   2.90186
   R25        2.07234  -0.00087   0.00000  -0.00253  -0.00253   2.06981
   R26        2.07343   0.00048   0.00000   0.00139   0.00139   2.07482
   R27        2.87451   0.00840   0.00000   0.02740   0.02740   2.90191
   R28        2.06958   0.00063   0.00000   0.00183   0.00183   2.07141
   R29        2.07125   0.00136   0.00000   0.00392   0.00392   2.07518
   R30        2.06827   0.00059   0.00000   0.00171   0.00171   2.06998
   R31        2.06861   0.00040   0.00000   0.00115   0.00115   2.06976
   R32        2.06865   0.00051   0.00000   0.00148   0.00148   2.07013
    A1        1.92432   0.00377   0.00000   0.02586   0.02575   1.95007
    A2        1.93742   0.00065   0.00000   0.00248   0.00243   1.93985
    A3        1.93741   0.00064   0.00000   0.00247   0.00241   1.93983
    A4        1.88634  -0.00197   0.00000  -0.00921  -0.00932   1.87702
    A5        1.88631  -0.00196   0.00000  -0.00918  -0.00929   1.87702
    A6        1.89038  -0.00135   0.00000  -0.01368  -0.01367   1.87671
    A7        1.94589   0.00639   0.00000   0.03450   0.03440   1.98029
    A8        1.90499  -0.00085   0.00000   0.00601   0.00612   1.91111
    A9        1.90497  -0.00085   0.00000   0.00602   0.00613   1.91109
   A10        1.91748  -0.00259   0.00000  -0.01525  -0.01563   1.90185
   A11        1.91751  -0.00260   0.00000  -0.01527  -0.01565   1.90186
   A12        1.87143   0.00027   0.00000  -0.01783  -0.01811   1.85332
   A13        1.94301   0.00722   0.00000   0.03794   0.03783   1.98084
   A14        1.91239  -0.00237   0.00000  -0.01027  -0.01049   1.90190
   A15        1.91246  -0.00237   0.00000  -0.01029  -0.01051   1.90195
   A16        1.91236  -0.00164   0.00000  -0.00169  -0.00171   1.91066
   A17        1.91243  -0.00165   0.00000  -0.00179  -0.00181   1.91062
   A18        1.86973   0.00053   0.00000  -0.01605  -0.01620   1.85353
   A19        1.94939   0.00534   0.00000   0.02331   0.02337   1.97276
   A20        1.92440  -0.00133   0.00000  -0.00336  -0.00328   1.92112
   A21        1.92443  -0.00133   0.00000  -0.00335  -0.00327   1.92116
   A22        1.90745  -0.00225   0.00000  -0.01339  -0.01343   1.89402
   A23        1.90763  -0.00224   0.00000  -0.01334  -0.01338   1.89425
   A24        1.84770   0.00155   0.00000   0.00899   0.00889   1.85659
   A25        1.88893   0.00176   0.00000   0.01382   0.01372   1.90265
   A26        1.92369   0.00006   0.00000   0.00043   0.00031   1.92401
   A27        1.92469  -0.00002   0.00000  -0.00075  -0.00085   1.92384
   A28        1.91119   0.00003   0.00000   0.00808   0.00801   1.91919
   A29        1.91144  -0.00005   0.00000   0.00653   0.00649   1.91793
   A30        1.90382  -0.00175   0.00000  -0.02757  -0.02760   1.87622
   A31        1.95153   0.00514   0.00000   0.02025   0.02025   1.97178
   A32        1.90983  -0.00368   0.00000  -0.01423  -0.01424   1.89559
   A33        1.90659   0.00176   0.00000   0.01625   0.01629   1.92288
   A34        1.91974   0.00073   0.00000  -0.00209  -0.00212   1.91762
   A35        1.90526   0.00183   0.00000   0.01397   0.01399   1.91925
   A36        1.93316   0.00131   0.00000   0.00302   0.00298   1.93614
   A37        1.88894  -0.00189   0.00000  -0.01643  -0.01642   1.87253
   A38        1.99939   0.00054   0.00000   0.00371   0.00366   2.00304
   A39        1.90706  -0.00138   0.00000  -0.02170  -0.02177   1.88529
   A40        1.89361  -0.00157   0.00000  -0.00825  -0.00853   1.88508
   A41        1.91456   0.00038   0.00000   0.00106   0.00101   1.91557
   A42        1.87551   0.00226   0.00000   0.03120   0.03117   1.90667
   A43        1.86907  -0.00024   0.00000  -0.00587  -0.00615   1.86292
   A44        1.97838   0.00659   0.00000   0.03122   0.03120   2.00958
   A45        1.91876  -0.00308   0.00000  -0.02010  -0.02001   1.89875
   A46        1.88568  -0.00100   0.00000   0.00419   0.00408   1.88976
   A47        1.91462  -0.00157   0.00000  -0.00853  -0.00839   1.90623
   A48        1.90417  -0.00247   0.00000  -0.00798  -0.00823   1.89594
   A49        1.85809   0.00124   0.00000  -0.00039  -0.00045   1.85764
   A50        1.94385   0.00513   0.00000   0.02847   0.02839   1.97224
   A51        1.92563  -0.00213   0.00000  -0.01274  -0.01302   1.91261
   A52        1.91812  -0.00191   0.00000  -0.01075  -0.01102   1.90710
   A53        1.89532  -0.00055   0.00000   0.00631   0.00638   1.90170
   A54        1.90500  -0.00075   0.00000   0.00480   0.00484   1.90985
   A55        1.87439   0.00005   0.00000  -0.01742  -0.01761   1.85678
   A56        1.92436   0.00380   0.00000   0.02634   0.02623   1.95058
   A57        1.93700   0.00047   0.00000   0.00106   0.00102   1.93802
   A58        1.93777   0.00062   0.00000   0.00237   0.00230   1.94007
   A59        1.88663  -0.00190   0.00000  -0.00890  -0.00899   1.87765
   A60        1.88589  -0.00189   0.00000  -0.00809  -0.00821   1.87769
   A61        1.89053  -0.00131   0.00000  -0.01399  -0.01398   1.87654
    D1       -3.14156  -0.00000   0.00000  -0.00001  -0.00001  -3.14157
    D2       -1.02008   0.00032   0.00000   0.00730   0.00742  -1.01267
    D3        1.02013  -0.00032   0.00000  -0.00729  -0.00741   1.01272
    D4        1.05181  -0.00042   0.00000  -0.00698  -0.00701   1.04479
    D5       -3.10990  -0.00010   0.00000   0.00032   0.00041  -3.10950
    D6       -1.06969  -0.00074   0.00000  -0.01427  -0.01441  -1.08410
    D7       -1.05177   0.00042   0.00000   0.00699   0.00702  -1.04475
    D8        1.06970   0.00074   0.00000   0.01430   0.01444   1.08414
    D9        3.10992   0.00010   0.00000  -0.00029  -0.00038   3.10954
   D10       -3.14154  -0.00000   0.00000  -0.00004  -0.00004  -3.14158
   D11       -1.02338   0.00106   0.00000   0.01574   0.01567  -1.00771
   D12        1.02335  -0.00106   0.00000  -0.01568  -0.01561   1.00774
   D13        1.02743  -0.00139   0.00000  -0.02004  -0.01987   1.00756
   D14       -3.13759  -0.00032   0.00000  -0.00426  -0.00416   3.14144
   D15       -1.09086  -0.00244   0.00000  -0.03569  -0.03544  -1.12630
   D16       -1.02734   0.00138   0.00000   0.01996   0.01979  -1.00755
   D17        1.09082   0.00245   0.00000   0.03574   0.03550   1.12632
   D18        3.13755   0.00033   0.00000   0.00432   0.00422  -3.14142
   D19        3.14137  -0.00000   0.00000  -0.00002  -0.00002   3.14135
   D20        1.01694   0.00016   0.00000   0.00350   0.00349   1.02043
   D21       -1.01714  -0.00015   0.00000  -0.00348  -0.00347  -1.02060
   D22        1.02319  -0.00064   0.00000  -0.01080  -0.01086   1.01234
   D23       -1.10124  -0.00048   0.00000  -0.00728  -0.00734  -1.10858
   D24       -3.13532  -0.00079   0.00000  -0.01426  -0.01430   3.13357
   D25       -1.02350   0.00064   0.00000   0.01066   0.01072  -1.01279
   D26        3.13525   0.00079   0.00000   0.01419   0.01423  -3.13371
   D27        1.10117   0.00048   0.00000   0.00721   0.00727   1.10845
   D28       -3.14058  -0.00005   0.00000  -0.00101  -0.00101   3.14159
   D29       -1.05095   0.00110   0.00000   0.01754   0.01754  -1.03342
   D30        1.05207  -0.00106   0.00000  -0.01701  -0.01700   1.03507
   D31       -1.00640   0.00026   0.00000   0.00099   0.00093  -1.00547
   D32        1.08323   0.00142   0.00000   0.01954   0.01948   1.10271
   D33       -3.09693  -0.00074   0.00000  -0.01501  -0.01506  -3.11198
   D34        1.00826  -0.00037   0.00000  -0.00306  -0.00301   1.00525
   D35        3.09789   0.00079   0.00000   0.01549   0.01554   3.11343
   D36       -1.08227  -0.00137   0.00000  -0.01907  -0.01900  -1.10127
   D37        3.14038   0.00004   0.00000   0.00013   0.00014   3.14052
   D38        1.04291  -0.00112   0.00000  -0.01344  -0.01352   1.02939
   D39       -1.04398   0.00104   0.00000   0.01138   0.01145  -1.03253
   D40       -3.13031   0.00039   0.00000   0.00476   0.00473  -3.12558
   D41        1.06799  -0.00069   0.00000  -0.01350  -0.01350   1.05448
   D42       -1.00294   0.00011   0.00000  -0.00205  -0.00202  -1.00496
   D43        1.00332   0.00021   0.00000   0.00879   0.00875   1.01207
   D44       -3.12402   0.00003   0.00000  -0.00405  -0.00409  -3.12811
   D45       -1.09184  -0.00189   0.00000  -0.02753  -0.02742  -1.11926
   D46        3.08902   0.00125   0.00000   0.02847   0.02841   3.11744
   D47       -1.03831   0.00107   0.00000   0.01562   0.01557  -1.02275
   D48        0.99386  -0.00085   0.00000  -0.00786  -0.00776   0.98610
   D49       -1.11597   0.00088   0.00000   0.01885   0.01880  -1.09717
   D50        1.03988   0.00069   0.00000   0.00601   0.00595   1.04583
   D51        3.07205  -0.00123   0.00000  -0.01747  -0.01738   3.05468
   D52        1.09827  -0.00023   0.00000   0.00106   0.00087   1.09914
   D53       -1.05152  -0.00058   0.00000   0.00497   0.00494  -1.04659
   D54       -3.07253   0.00016   0.00000   0.01389   0.01387  -3.05866
   D55       -1.05356   0.00089   0.00000   0.02615   0.02607  -1.02749
   D56        3.07983   0.00055   0.00000   0.03006   0.03014   3.10997
   D57        1.05882   0.00128   0.00000   0.03898   0.03908   1.09790
   D58       -3.07972  -0.00027   0.00000   0.01532   0.01526  -3.06446
   D59        1.05367  -0.00062   0.00000   0.01923   0.01933   1.07300
   D60       -0.96733   0.00012   0.00000   0.02814   0.02826  -0.93907
   D61        3.05780   0.00057   0.00000   0.01106   0.01106   3.06886
   D62       -1.11921   0.00184   0.00000   0.02930   0.02917  -1.09004
   D63        0.94448  -0.00057   0.00000  -0.00648  -0.00639   0.93810
[...]
 01,0.00035733,-0.01616269,0.01010463,-0.01381910,0.18025391,-0.0000021
 4,-0.00000020,0.00000555,-0.00000785,0.00000055,-0.00001131,-0.0000042
 3,0.00000302,0.00003378,-0.00002654,0.00000639,-0.00004495,0.00003611,
 -0.00012224,0.00014398,0.00020142,0.00034697,0.00042117,-0.00077475,-0
 .00404955,-0.00315447,-0.01885815,0.00875909,-0.01513484,0.07667368,-0
 .09347963,0.06349136,0.01694458,-0.01401238,0.01550385,0.00164892,0.00
 108886,0.00067749,-0.00000211,0.00000084,-0.00000060,-0.00000044,0.000
 00116,-0.00000156,0.00000119,0.00000054,0.00000033,0.00000105,0.000001
 39,-0.00000087,-0.00000083,0.00000232,0.00000396,-0.00000202,0.0000029
 4,-0.00000559,0.00000950,0.00000173,0.00000259,-0.00001664,0.00002271,
 0.00003213,0.00000364,0.00000527,0.00000240,-0.00000518,0.00002140,-0.
 00004424,0.00005343,0.00004659,0.00002316,-0.00115358,0.00037159,-0.00
 075599,-0.00001762,0.00008102,-0.00021931,0.00060864,0.00073241,0.0005
 6546,0.00009294,0.00135199,0.00047589,0.00804470,-0.00577335,0.0072169
 3,-0.07880876,0.10671980,-0.00000188,0.00000153,0.00001154,-0.00000496
 ,0.00000032,-0.00002436,0.00000039,0.00000974,0.00004331,-0.00002164,0
 .00000368,-0.00006396,0.00010486,0.00002570,0.00013784,0.00004829,0.00
 035155,0.00054909,0.00039653,-0.00426736,-0.00172100,-0.01525686,0.008
 16477,-0.01264447,-0.09900247,0.06296061,-0.13227542,-0.01221571,0.009
 94774,-0.01185829,-0.00022232,-0.00122200,0.00057972,-0.00000932,0.000
 00353,0.00000190,0.00000099,-0.00000064,-0.00000171,0.00000096,-0.0000
 0052,-0.00000188,-0.00000255,-0.00000218,0.00000315,-0.00000067,0.0000
 0383,0.00000280,0.00000136,-0.00000346,0.00000044,0.00000531,-0.000000
 40,0.00000140,-0.00001223,0.00002587,0.00001849,-0.00000688,-0.0000052
 6,0.00000975,-0.00000810,-0.00000561,-0.00000657,0.00006333,0.00000290
 ,0.00003623,-0.00114455,0.00037175,-0.00053718,0.00028886,0.00001525,0
 .00020811,0.00050493,0.00054411,0.00012219,0.00036753,-0.00005915,0.00
 121394,0.01283620,-0.00839372,0.01172413,0.11089331,-0.07054509,0.1446
 4381,0.00000023,0.00000195,-0.00000139,0.00000119,-0.00000155,-0.00000
 130,-0.00000112,0.00000850,-0.00000398,-0.00000062,-0.00000681,-0.0000
 0689,-0.00002744,0.00006839,-0.00006363,0.00010158,0.00014272,0.000329
 33,-0.00053949,-0.00027838,-0.00114455,0.00029598,0.00050560,-0.000478
 32,0.01077751,-0.00709249,0.00913021,-0.16424517,0.08141137,-0.0952774
 3,-0.01063581,0.00585878,-0.00847517,-0.00000110,0.00000019,0.00000119
 ,0.00000068,-0.00000212,0.00000081,0.00000071,0.00000009,-0.00000006,-
 0.00000158,-0.00000219,0.00000209,0.00000008,0.00000202,-0.00000009,0.
 00000140,-0.00000533,0.00000306,0.00000236,0.00000017,0.00000157,-0.00
 000164,0.00000753,0.00000260,-0.00000219,-0.00000401,0.00000231,-0.000
 02179,-0.00003755,0.00000372,0.00001683,-0.00000212,0.00001929,0.00007
 002,-0.00013828,0.00013417,-0.00063211,-0.00102527,-0.00001551,-0.0000
 5871,-0.00005168,-0.00008320,0.00010318,0.00026596,0.00010096,0.000967
 50,0.00067150,-0.00039649,-0.00016113,-0.00312526,0.00186999,0.1790694
 8,0.00000241,-0.00000094,-0.00001390,0.00000326,0.00000092,0.00002840,
 -0.00000517,0.00000067,-0.00003941,0.00000507,0.00001958,0.00004395,-0
 .00034217,-0.00002992,-0.00006859,0.00038856,0.00015404,-0.00042939,-0
 .00055734,-0.00109588,0.00106178,0.00089945,0.00065755,0.00026695,0.01
 754177,-0.01318027,0.01482971,0.08141975,-0.10205988,0.06672547,-0.017
 13792,0.00966449,-0.01432063,0.00001051,-0.00000395,-0.00000182,-0.000
 00086,0.00000047,0.00000243,-0.00000126,0.,0.00000189,0.00000304,0.000
 00198,-0.00000368,0.00000029,-0.00000419,-0.00000415,-0.00000130,0.000
 00378,0.00000045,-0.00000108,-0.00000153,0.00000027,-0.00000219,-0.000
 01045,-0.00000259,0.00001518,0.00000648,-0.00001471,0.00000172,0.00003
 547,-0.00000848,0.00002744,0.00002657,0.00001238,0.00007559,0.00045296
 ,-0.00034443,-0.00081232,0.00027285,-0.00121985,-0.00001388,-0.0000986
 3,-0.00008884,-0.00017597,0.00022065,-0.00019006,-0.00025462,0.0011910
 0,-0.00051155,-0.00312697,-0.00341189,0.00263253,-0.08494635,0.1139693
 2,0.00000071,0.00000058,0.00000840,0.00000670,0.00000316,-0.00001523,0
 .00001254,-0.00000358,0.00000695,0.00002709,0.00001813,0.00001556,0.00
 017394,0.00007057,-0.00001120,0.00004907,-0.00030836,-0.00009662,-0.00
 053345,0.00028990,0.00005707,-0.00010115,-0.00055250,-0.00000069,-0.01
 152083,0.00918011,-0.01057627,-0.09443643,0.06628374,-0.12780866,-0.01
 541616,0.00886830,-0.01296835,-0.00000909,0.00000362,0.00000267,0.0000
 0198,-0.00000128,-0.00000002,-0.00000160,-0.00000197,-0.00000340,-0.00
 000497,-0.00000470,0.00000461,0.00000050,-0.00000065,-0.00000390,0.000
 00557,-0.00000531,0.00000958,-0.00001172,-0.00000439,-0.00000493,0.000
 01202,-0.00000813,-0.00003582,-0.00002185,-0.00001860,0.00000818,0.000
 02645,-0.00002267,0.00006923,-0.00003791,-0.00004719,-0.00001254,0.000
 09027,-0.00026439,0.00013129,-0.00044720,-0.00065604,0.00030632,0.0000
 8596,0.00005782,0.00011066,0.00006443,-0.00001104,0.00003563,-0.000331
 50,-0.00056951,0.00028942,0.00167737,0.00272004,-0.00119592,0.10800968
 ,-0.07303178,0.14085888,0.00000135,-0.00000074,0.00000798,0.00000459,0
 .00000144,-0.00000987,0.00001447,-0.00001033,0.00000396,0.00002182,0.0
 0001589,0.00002516,0.00013905,0.00000389,-0.00002534,0.00020137,-0.000
 16938,-0.00029705,-0.00037895,0.00008872,-0.00002078,0.00026752,0.0013
 5398,0.00072501,-0.01194619,0.00450030,0.00938553,-0.17026898,0.066388
 43,0.10499176,0.01032461,-0.00654167,-0.01003419,-0.00000677,0.0000027
 0,0.00000171,0.00000062,0.00000146,-0.00000172,-0.00000219,-0.00000193
 ,-0.00000310,-0.00000083,0.00000023,0.00000132,-0.00000002,-0.00000332
 ,-0.00000240,0.00000053,0.00000296,0.00000110,-0.00001214,-0.00000345,
 -0.00000633,0.00000967,-0.00002059,-0.00002190,-0.00000359,-0.00000279
 ,0.00000211,0.00000542,0.00000133,0.00003078,-0.00004266,-0.00003274,-
 0.00002117,-0.00010130,-0.00009158,-0.00002397,-0.00006248,0.00010211,
 0.00007622,0.00007496,-0.00083335,-0.00069395,0.00033075,-0.00010275,-
 0.00025095,0.00020186,-0.00303545,0.00153617,0.00096949,-0.00036657,-0
 .00024394,-0.01621510,0.00846837,0.01347257,0.18503970,-0.00000099,0.0
 0000027,0.00000154,-0.00000334,-0.00000397,-0.00000486,0.00000012,-0.0
 0000353,0.00000371,-0.00000546,-0.00000604,-0.00000546,0.00006414,-0.0
 0010193,-0.00001275,-0.00014154,0.00000842,-0.00007443,-0.00005157,-0.
 00000228,0.00008797,-0.00004560,0.00187758,0.00090024,-0.01970437,0.00
 776776,0.01602456,0.06606214,-0.08149040,-0.05529725,0.01561478,-0.010
 04007,-0.01448408,-0.00000076,-0.00000013,-0.00000012,-0.00000080,0.00
 000032,-0.00000151,0.00000146,0.00000141,0.00000104,0.00000176,0.00000
 188,-0.00000066,0.00000035,0.00000207,0.00000410,-0.00000399,0.0000026
 9,-0.00000592,0.00000260,0.00000365,0.00000103,0.00000018,-0.00000547,
 0.00001283,0.00001117,0.00000924,-0.00000136,-0.00001565,0.00002395,-0
 .00003943,-0.00002140,0.00002091,-0.00002053,-0.00000362,0.00004962,-0
 .00006815,0.00001583,-0.00000198,-0.00007104,0.00042681,-0.00011655,-0
 .00048840,0.00032541,0.00021223,0.00007302,-0.00263433,-0.00360819,0.0
 0282521,0.00059373,0.00107691,-0.00064848,0.01076210,-0.00622857,-0.00
 930843,-0.06843750,0.09153686,-0.00000114,0.00000129,-0.00000286,-0.00
 000295,-0.00000388,0.00000062,-0.00000555,0.00000802,-0.00000087,-0.00
 000318,-0.00001865,-0.00001485,-0.00006448,0.00008525,-0.00002830,0.00
 003926,-0.00001218,0.00010262,0.00008432,0.00008324,-0.00003383,-0.000
 91376,-0.00081031,0.00049923,0.01377836,-0.00576485,-0.01188380,0.1042
 4280,-0.05490982,-0.13919929,0.01426980,-0.00896953,-0.01362953,0.0000
 0204,-0.00000126,-0.00000080,0.00000020,-0.00000152,0.00000096,0.00000
 181,0.00000131,0.00000218,-0.00000123,-0.00000128,0.00000045,0.0000006
 4,0.00000416,0.00000164,0.00000280,-0.00000508,0.00000273,0.00000583,0
 .00000127,0.00000490,-0.00000208,0.00001726,0.00000108,-0.00000850,-0.
 00000524,0.00000345,0.00001362,-0.00001919,0.00002765,0.00001857,-0.00
 000271,0.00002685,0.00005242,-0.00002598,0.00004661,0.00004296,0.00001
 169,0.00003946,0.00009173,0.00056856,0.00071169,-0.00031465,0.00006442
 ,0.00009295,0.00110564,0.00291445,-0.00118891,-0.00043348,-0.00045705,
 0.00021909,-0.01269700,0.00680443,0.01141753,-0.11712057,0.06239475,0.
 15336680,-0.00000114,-0.00000231,0.00000923,-0.00000283,-0.00000022,-0
 .00001404,0.00000388,-0.00001306,0.00002338,-0.00001178,0.00001188,-0.
 00001359,0.00013659,-0.00008909,0.00009504,-0.00020824,0.00007620,-0.0
 0007609,0.00018284,-0.00006777,0.00014119,0.00016877,-0.00069366,0.000
 85446,-0.00062505,-0.00133146,-0.00310600,-0.00680447,-0.00925902,0.00
 789434,-0.09483872,-0.08228335,0.05836167,-0.00000564,0.00000203,0.000
 00057,-0.00000056,0.00000264,-0.00000361,0.00000009,0.00000045,-0.0000
 0104,0.00000138,0.00000280,-0.00000109,0.00000025,-0.00000049,0.000003
 41,-0.00000297,0.00000670,-0.00000695,-0.00000259,0.00000197,-0.000002
 47,0.00000410,-0.00000851,0.00000420,0.00000487,0.00000449,-0.00000228
 ,-0.00000830,0.00002468,-0.00002549,-0.00001850,0.00000288,-0.00002060
 ,-0.00004049,0.00001720,-0.00002587,-0.00000922,0.00006275,-0.00002468
 ,-0.00000639,-0.00006018,-0.00007021,-0.00017266,-0.00028580,-0.000221
 58,0.00038851,0.00033869,-0.00027287,0.00017852,-0.00025463,0.00022582
 ,-0.00001363,0.00040989,0.00035824,0.00064983,0.00037545,-0.00028378,0
 .10010703,-0.00000123,-0.00000069,0.00001274,-0.00000321,-0.00000144,-
 0.00002184,0.00000608,-0.00000635,0.00003406,-0.00001892,0.00000357,-0
 .00002922,0.00019812,-0.00010525,0.00011148,-0.00030364,0.00012297,-0.
 00006334,0.00025085,-0.00027443,0.00003205,-0.00065767,-0.00047027,0.0
 0136107,-0.00140046,-0.00187235,-0.00483315,-0.00839676,-0.01587489,0.
 01240080,-0.08233043,-0.18926429,0.10082534,-0.00000918,0.00000330,0.0
 0000158,0.00000017,0.00000217,-0.00000369,0.00000026,-0.00000043,-0.00
 000178,0.00000014,0.00000152,0.00000023,-0.00000024,0.00000144,0.00000
 340,-0.00000233,0.00000509,-0.00000531,-0.00000143,0.00000044,-0.00000
 145,0.00000138,-0.00000123,0.00000580,0.00000422,0.00000312,0.00000053
 ,-0.00001434,0.00002623,-0.00002688,-0.00002743,0.00000184,-0.00002257
 ,-0.00012270,0.00002995,-0.00006301,-0.00001163,0.00007642,-0.00001008
 ,0.00007176,0.00001301,-0.00004223,-0.00024292,-0.00042491,-0.00030341
 ,-0.00012098,0.00016332,0.00010243,0.00017200,0.00042647,-0.00026901,0
 .00001122,0.00106092,-0.00014450,0.00077179,0.00035199,0.00018713,0.09
 274675,0.20613912,-0.00000076,0.00000125,-0.00000080,-0.00000210,-0.00
 000063,-0.00000112,-0.00000288,0.00000475,0.00000359,-0.00000696,-0.00
 000820,-0.00001381,0.00000581,-0.00001762,0.00000794,-0.00002626,0.000
 04068,-0.00001208,0.00012873,-0.00004766,0.00013698,-0.00056907,-0.000
 99344,0.00093963,-0.00141390,-0.00205042,-0.00310478,-0.01008184,-0.01
 731094,0.01211575,0.05905813,0.10198726,-0.11821472,0.00000097,-0.0000
 0029,-0.00000067,0.00000007,-0.00000079,0.00000108,0.00000079,0.000000
 11,0.00000090,-0.00000039,-0.00000125,0.00000014,-0.00000013,0.0000023
 4,0.00000047,0.00000011,-0.00000121,0.00000080,0.00000342,0.00000024,0
 .00000232,-0.00000203,0.00000809,0.00000355,0.00000041,-0.00000086,0.0
 0000002,-0.00000328,0.00000403,-0.00000406,-0.00000167,0.00000492,0.00
 000164,-0.00000554,0.00002275,-0.00001774,-0.00001731,0.00005146,-0.00
 003694,0.00006487,0.00006629,0.00002769,-0.00019661,-0.00034571,-0.000
 26688,-0.00028981,0.00002589,0.00004071,0.00020676,-0.00023564,0.00001
 860,0.00045736,0.00073690,0.00094668,0.00051130,0.00070771,0.00091796,
 -0.06316035,-0.10931444,0.12682706,0.00000090,-0.00000031,-0.00000340,
 0.00000154,0.00000285,0.00000897,-0.00000218,0.00000218,-0.00000668,0.
 00000111,-0.00000022,0.00000520,-0.00005240,0.00000998,-0.00000857,0.0
 0005207,0.00000387,0.00000403,-0.00002774,0.00000262,0.00003515,0.0001
 8117,0.00000833,-0.00029088,0.00099864,0.00036497,-0.00041484,0.010549
 39,-0.00644483,-0.00925108,-0.17094806,0.07152620,0.10865552,0.0000033
 9,-0.00000075,-0.00000055,-0.00000017,0.00000037,0.00000108,-0.0000010
 7,-0.00000092,-0.00000044,0.00000080,0.00000059,-0.00000077,-0.0000010
 5,-0.00000263,-0.00000204,-0.00000002,0.00000069,0.00000027,0.00000042
 ,-0.00000151,-0.00000081,-0.00000434,-0.00000178,0.00000188,0.00000252
 ,0.00000279,-0.00000098,0.00000244,0.00000004,-0.00000232,0.00000830,0
 .00000189,0.00000302,0.00001741,0.00000839,0.00000227,-0.00000193,-0.0
 0000322,-0.00002355,-0.00012504,-0.00003399,0.00005930,0.00000046,0.00
 007402,0.00006023,0.00003531,0.00035597,0.00010676,-0.00008174,-0.0000
 0195,0.00011121,0.00100206,0.00056236,0.00055578,-0.00011306,-0.002802
 62,-0.00218440,-0.00971415,0.00563765,0.00692276,0.18390122,-0.0000010
 3,0.00000193,-0.00000189,-0.00000236,-0.00000203,-0.00000094,-0.000005
 03,0.00001113,0.00000337,-0.00000833,-0.00002114,-0.00002133,-0.000009
 33,0.00001878,-0.00001181,-0.00006840,0.00003587,0.00011211,0.00011487
 ,0.00002506,-0.00013530,-0.00028879,0.00002294,0.00002824,0.00179624,0
 .00109627,-0.00046683,0.01570445,-0.01004016,-0.01369179,0.07087757,-0
 .08776583,-0.06130062,0.00000118,-0.00000057,-0.00000046,0.00000041,-0
 .00000167,0.00000146,0.00000148,0.00000046,0.00000142,-0.00000134,-0.0
 0000215,0.00000076,-0.00000012,0.00000415,0.00000091,0.00000139,-0.000
 00443,0.00000245,0.00000685,0.00000050,0.00000457,-0.00000577,0.000017
 71,0.00000687,-0.00000285,-0.00000240,0.00000308,-0.00000106,-0.000009
 62,0.00000230,0.00000737,0.00000557,0.00001163,-0.00000177,-0.00001765
 ,0.00003107,0.00002201,-0.00005044,0.00005514,-0.00003714,0.00019147,0
 .00022842,-0.00006820,-0.00001509,0.00003571,-0.00081862,-0.00016325,0
 .00043090,-0.00000979,-0.00009796,0.00001647,-0.00028648,0.00094929,0.
 00066082,-0.00256660,-0.00240469,-0.00292902,-0.01718870,0.01048908,0.
 01454241,-0.07706472,0.09402880,-0.00000240,0.00000059,0.00000261,-0.0
 0000854,-0.00000678,-0.00000831,-0.00000552,0.00000219,0.00001823,-0.0
 0002460,-0.00002863,-0.00003915,0.00006737,-0.00007431,0.00004626,-0.0
 0019650,0.00013257,0.00007254,0.00018507,-0.00007314,-0.00012743,-0.00
 021168,0.00011229,0.00005369,0.00040333,0.00126534,0.00047904,0.014751
 43,-0.00901443,-0.01405628,0.10802183,-0.06150453,-0.14162130,0.,-0.00
 000063,-0.00000093,-0.00000115,0.00000065,-0.00000222,0.00000283,0.000
 00228,0.00000226,0.00000225,0.00000322,-0.00000127,-0.00000007,0.00000
 462,0.00000736,-0.00000336,0.00000182,-0.00000843,0.00000976,0.0000051
 4,0.00000488,-0.00000565,0.00001104,0.00002594,0.00000859,0.00001171,0
 .00000231,-0.00000837,0.00001113,-0.00003359,-0.00000327,0.00002108,-0
 .00000252,-0.00002947,0.00000046,0.00001601,0.00001978,-0.00003273,0.0
 0003131,0.00003681,0.00021788,0.00010489,-0.00007196,-0.00002723,0.000
 02479,-0.00047153,-0.00044642,0.00064562,-0.00010302,-0.00005491,0.000
 09460,0.00022753,0.00073951,0.00038365,-0.00255801,-0.00304860,-0.0018
 7972,0.01151159,-0.00708204,-0.01049735,-0.11845080,0.07145903,0.15430
 556,0.00000029,0.00000040,0.00000441,0.00000375,0.00000259,-0.00000897
 ,0.00000564,-0.00000041,0.00000501,0.00000886,0.00001072,0.00000415,0.
 00007283,0.00004263,-0.00000479,-0.00008148,-0.00007279,0.00005359,0.0
 0006243,0.00028945,-0.00008001,0.00026272,-0.00029463,0.00015082,0.000
 15840,0.00149056,-0.00025700,-0.01040525,0.00575342,-0.00773799,-0.174
 24061,0.07975954,-0.10101070,-0.00000548,0.00000224,0.00000180,0.00000
 118,-0.00000113,0.00000019,-0.00000068,-0.00000099,-0.00000194,-0.0000
 0298,-0.00000342,0.00000274,0.00000036,0.00000014,-0.00000212,0.000002
 40,-0.00000342,0.00000516,-0.00000510,-0.00000195,-0.00000240,0.000004
 97,-0.00000181,-0.00001372,-0.00000962,-0.00000995,0.00000394,-0.00000
 036,-0.00001514,0.00001987,-0.00001153,-0.00001907,-0.00000456,0.00003
 005,-0.00007999,0.00005739,0.00003720,-0.00008610,0.00013837,-0.000016
 17,0.00004141,0.00001265,-0.00004125,-0.00006611,-0.00000740,-0.000061
 42,-0.00001502,-0.00003045,0.00010236,-0.00089052,0.00043422,0.0001478
 4,-0.00245527,-0.00175698,0.00089666,-0.00038449,0.00028395,0.01066066
 ,-0.00620689,0.00841941,-0.01568621,0.00990259,-0.01309229,0.18810952,
 -0.00000112,-0.00000017,0.00000088,-0.00000349,-0.00000257,-0.00000202
 ,-0.00000219,-0.00000080,0.00000592,-0.00000477,-0.00001294,-0.0000118
 3,0.00003080,-0.00000407,0.00000524,-0.00003926,-0.00000417,0.00006374
 ,-0.00004357,0.00005479,-0.00020491,0.00017495,0.00018259,-0.00014246,
 -0.00023405,0.00192117,-0.00075460,-0.01719786,0.00973409,-0.01300902,
 0.08042348,-0.09736585,0.06460445,0.00000097,-0.00000056,-0.00000090,-
 0.00000058,0.00000054,-0.00000085,0.00000101,0.00000098,0.00000105,0.0
 0000094,0.00000170,-0.00000073,-0.00000006,0.00000140,0.00000287,-0.00
 000063,0.00000070,-0.00000331,0.00000334,0.00000206,0.00000164,-0.0000
 0109,0.00000369,0.00000733,0.00000040,0.00000382,0.00000181,0.00000128
 ,-0.00000497,-0.00000330,-0.00000034,0.00000203,0.00000151,-0.00002385
 ,-0.00008265,0.00006642,0.00007423,-0.00009601,0.00016187,-0.00000523,
 0.00001053,-0.00000072,0.00004796,0.00002229,0.00004771,-0.00000940,-0
 .00010078,0.00008498,0.00044528,-0.00012476,0.00034102,-0.00271220,-0.
 00256286,-0.00319177,0.00051714,0.00106602,0.00079028,0.01745080,-0.01
 062544,0.01212202,0.00779371,-0.00629991,0.00739183,-0.08668661,0.1042
 8008,-0.00000044,0.00000117,0.00000650,-0.00000052,-0.00000192,-0.0000
 1332,0.00000460,0.00000266,0.00001516,-0.00000455,-0.00000960,-0.00001
 599,0.00012271,0.00000655,0.00001595,-0.00016396,-0.00001551,0.0000945
 3,0.00014401,0.00026952,-0.00026172,0.00020521,-0.00011508,0.00004029,
 0.00101176,0.00106593,0.00042492,-0.01563775,0.00911431,-0.01315533,-0
 .10088104,0.06404192,-0.12807075,-0.00000586,0.00000204,0.00000159,0.0
 0000058,-0.00000038,-0.00000134,0.00000039,-0.00000039,-0.00000130,-0.
 00000134,-0.00000073,0.00000213,-0.00000024,0.00000180,0.00000158,0.00
 000045,-0.00000201,0.00000013,-0.00000048,-0.00000023,-0.00000032,0.00
 000069,0.00000253,0.00000063,-0.00000347,-0.00000101,0.00000640,-0.000
 00473,-0.00001078,0.00000299,-0.00001612,-0.00001063,-0.00000650,-0.00
 000493,-0.00009211,0.00006685,0.00002420,-0.00011522,0.00018107,-0.000
 01319,0.00001111,-0.00004575,-0.00001162,-0.00004762,0.00000634,0.0000
 2840,-0.00009725,0.00009746,-0.00007621,-0.00065365,0.00069066,-0.0016
 5087,-0.00359319,-0.00192874,0.00056255,0.00054374,0.00037632,-0.01215
 058,0.00715931,-0.00982253,0.01410868,-0.00907914,0.01195694,0.1144136
 8,-0.06837612,0.13933514\\0.00000171,-0.00000068,0.00000452,-0.0000011
 6,0.00000053,-0.00000977,-0.00000337,0.00000182,0.00001133,0.00000388,
 -0.00000312,-0.00000131,-0.00001024,0.00000635,0.00001020,-0.00000107,
 -0.00000017,0.00000835,0.00001277,-0.00000624,-0.00000094,-0.00000400,
 0.00000726,0.00000210,0.00000176,0.00000158,0.00000027,0.00000041,-0.0
 0000092,0.00000602,-0.00000108,-0.00000138,-0.00000472,0.00000129,-0.0
 0000035,-0.00000056,0.00000027,0.00000032,-0.00000133,-0.00000001,-0.0
 0000017,-0.00000129,0.00000042,-0.00000040,0.00000242,0.00000068,0.000
 00002,0.00000244,-0.00000048,0.00000081,-0.00000304,-0.00000123,-0.000
 00008,-0.00000316,0.00000066,0.00000033,-0.00000178,-0.00000027,-0.000
 00060,-0.00000235,0.00000166,-0.00000027,-0.00000398,0.00000235,-0.000
 00018,-0.00000501,-0.00000110,-0.00000060,-0.00000171,-0.00000244,0.00
 000021,-0.00000306,0.00000082,-0.00000288,-0.00000135,0.00000052,0.000
 00092,-0.00000008,-0.00000121,0.,-0.00000100,-0.00000025,-0.00000129,-
 0.00000041,-0.00000062,0.00000053,-0.00000086,0.00000039,0.00000114,-0
 .00000322,-0.00000038,-0.00000174,0.00000017,-0.00000034,0.00000024,0.
 00000133,-0.00000033,-0.00000100,0.00000175\\\@
 The archive entry for this job was punched.


 "I COULD HAVE DONE IT IN A MUCH MORE COMPLICATED WAY"
 SAID THE RED QUEEN, IMMENSELY PROUD.

                                      -- LEWIS CARROLL
 Job cpu time:       0 days  1 hours 30 minutes 57.9 seconds.
 Elapsed time:       0 days  0 hours  5 minutes  3.7 seconds.
 File lengths (MBytes):  RWF=    460 Int=      0 D2E=      0 Chk=     16 Scr=      1
 Normal termination of Gaussian 16 at Fri Nov 13 17:54:09 2020.
