 Entering Gaussian System, Link 0=/nopt/nrel/apps/gaussian/g16C_1/g16/g16
 Initial command:
 /nopt/nrel/apps/gaussian/g16C_1/g16/l1.exe "/tmp/scratch/4715369/Gau-243511.inp" -scrdir="/tmp/scratch/4715369/"
 Default is to use a total of  36 processors:
                               36 via shared-memory
                                1 via Linda
 Entering Link 1 = /nopt/nrel/apps/gaussian/g16C_1/g16/l1.exe PID=    243512.
  
 Copyright (c) 1988-2019, Gaussian, Inc.  All Rights Reserved.
  
 This is part of the Gaussian(R) 16 program.  It is based on
 the Gaussian(R) 09 system (copyright 2009, Gaussian, Inc.),
 the Gaussian(R) 03 system (copyright 2003, Gaussian, Inc.),
 the Gaussian(R) 98 system (copyright 1998, Gaussian, Inc.),
 the Gaussian(R) 94 system (copyright 1995, Gaussian, Inc.),
 the Gaussian 92(TM) system (copyright 1992, Gaussian, Inc.),
 the Gaussian 90(TM) system (copyright 1990, Gaussian, Inc.),
 the Gaussian 88(TM) system (copyright 1988, Gaussian, Inc.),
 the Gaussian 86(TM) system (copyright 1986, Carnegie Mellon
 University), and the Gaussian 82(TM) system (copyright 1983,
 Carnegie Mellon University). Gaussian is a federally registered
 trademark of Gaussian, Inc.
  
 This software contains proprietary and confidential information,
 including trade secrets, belonging to Gaussian, Inc.
  
 This software is provided under written license and may be
 used, copied, transmitted, or stored only in accord with that
 written license.
  
 The following legend is applicable only to US Government
 contracts under FAR:
  
                    RESTRICTED RIGHTS LEGEND
  
 Use, reproduction and disclosure by the US Government is
 subject to restrictions as set forth in subparagraphs (a)
 and (c) of the Commercial Computer Software - Restricted
 Rights clause in FAR 52.227-19.
  
 Gaussian, Inc.
 340 Quinnipiac St., Bldg. 40, Wallingford CT 06492
  
  
 ---------------------------------------------------------------
 Warning -- This program may not be used in any manner that
 competes with the business of Gaussian, Inc. or will provide
 assistance to any competitor of Gaussian, Inc.  The licensee
 of this program is prohibited from giving any competitor of
 Gaussian, Inc. access to this program.  By using this program,
 the user acknowledges that Gaussian, Inc. is engaged in the
 business of creating and licensing software in the field of
 computational chemistry and represents and warrants to the
 licensee that it is not a competitor of Gaussian, Inc. and that
 it will not use this program in any manner prohibited above.
 ---------------------------------------------------------------
  

 Cite this work as:
 Gaussian 16, Revision C.01,
 M. J. Frisch, G. W. Trucks, H. B. Schlegel, G. E. Scuseria, 
 M. A. Robb, J. R. Cheeseman, G. Scalmani, V. Barone, 
 G. A. Petersson, H. Nakatsuji, X. Li, M. Caricato, A. V. Marenich, 
 J. Bloino, B. G. Janesko, R. Gomperts, B. Mennucci, H. P. Hratchian, 
 J. V. Ortiz, A. F. Izmaylov, J. L. Sonnenberg, D. Williams-Young, 
 F. Ding, F. Lipparini, F. Egidi, J. Goings, B. Peng, A. Petrone, 
 T. Henderson, D. Ranasinghe, V. G. Zakrzewski, J. Gao, N. Rega, 
 G. Zheng, W. Liang, M. Hada, M. Ehara, K. Toyota, R. Fukuda, 
 J. Hasegawa, M. Ishida, T. Nakajima, Y. Honda, O. Kitao, H. Nakai, 
 T. Vreven, K. Throssell, J. A. Montgomery, Jr., J. E. Peralta, 
 F. Ogliaro, M. J. Bearpark, J. J. Heyd, E. N. Brothers, K. N. Kudin, 
 V. N. Staroverov, T. A. Keith, R. Kobayashi, J. Normand, 
 K. Raghavachari, A. P. Rendell, J. C. Burant, S. S. Iyengar, 
 J. Tomasi, M. Cossi, J. M. Millam, M. Klene, C. Adamo, R. Cammi, 
 J. W. Ochterski, R. L. Martin, K. Morokuma, O. Farkas, 
 J. B. Foresman, and D. J. Fox, Gaussian, Inc., Wallingford CT, 2019.
 
 ******************************************
 Gaussian 16:  ES64L-G16RevC.01  3-Jul-2019
                 7-Oct-2020 
 ******************************************
 %nprocshared=18
 Will use up to   18 processors via shared memory.
 %mem=24GB
 Default route: CacheSize=180224 MaxDisk=256GB
 -----------------------------
 # opt freq b3lyp/6-31g(2df,p)
 -----------------------------
 1/4=180224,18=20,19=15,26=3,38=1/1,3;
 2/4=180224,9=110,12=2,17=6,18=5,40=1/2;
 3/4=180224,5=1,6=6,7=104,11=2,25=1,30=1,71=1,74=-5/1,2,3;
 4/4=180224/1;
 5/4=180224,5=2,38=5/2;
 6/4=180224,7=2,8=2,9=2,10=2,28=1/1;
 7/4=180224/1,2,3,16;
 1/4=180224,18=20,19=15,26=3/3(2);
 2/4=180224,9=110/2;
 99/4=180224/99;
 2/4=180224,9=110/2;
 3/4=180224,5=1,6=6,7=104,11=2,25=1,30=1,71=1,74=-5/1,2,3;
 4/4=180224,5=5,16=3,69=1/1;
 5/4=180224,5=2,38=5/2;
 7/4=180224/1,2,3,16;
 1/4=180224,18=20,19=15,26=3/3(-5);
 2/4=180224,9=110/2;
 6/4=180224,7=2,8=2,9=2,10=2,19=2,28=1/1;
 99/4=180224,9=1/99;
 -------------------
 Title Card Required
 -------------------
 Symbolic Z-matrix:
 Charge =  0 Multiplicity = 2
 O                    -7.06644   2.03588   0. 
 H                    -7.79003   2.66676   0. 
 

 GradGradGradGradGradGradGradGradGradGradGradGradGradGradGradGradGradGrad
 Berny optimization.
 Initialization pass.
                           ----------------------------
                           !    Initial Parameters    !
                           ! (Angstroms and Degrees)  !
 --------------------------                            --------------------------
 ! Name  Definition              Value          Derivative Info.                !
 --------------------------------------------------------------------------------
 ! R1    R(1,2)                  0.96           estimate D2E/DX2                !
 --------------------------------------------------------------------------------
 Trust Radius=3.00D-01 FncErr=1.00D-07 GrdErr=1.00D-06 EigMax=2.50D+02 EigMin=1.00D-04
 Number of steps in this run=     20 maximum allowed number of steps=    100.
 GradGradGradGradGradGradGradGradGradGradGradGradGradGradGradGradGradGrad

                          Input orientation:                          
 ---------------------------------------------------------------------
 Center     Atomic      Atomic             Coordinates (Angstroms)
 Number     Number       Type             X           Y           Z
 ---------------------------------------------------------------------
      1          8           0       -7.066436    2.035881    0.000000
      2          1           0       -7.790030    2.666763    0.000000
 ---------------------------------------------------------------------
 Stoichiometry    HO(2)
 Framework group  C*V[C*(HO)]
 Deg. of freedom     1
 Full point group                 C*V     NOp   4
 Largest Abelian subgroup         C2V     NOp   4
 Largest concise Abelian subgroup C1      NOp   1
                         Standard orientation:                         
 ---------------------------------------------------------------------
 Center     Atomic      Atomic             Coordinates (Angstroms)
 Number     Number       Type             X           Y           Z
 ---------------------------------------------------------------------
      1          8           0        0.000000   -0.000000    0.106667
      2          1           0       -0.000000    0.000000   -0.853333
 ---------------------------------------------------------------------
 Rotational constants (GHZ):           0.0000000         578.3977133         578.3977133
 Standard basis: 6-31G(2df,p) (6D, 7F)
 There are    17 symmetry adapted cartesian basis functions of A1  symmetry.
 There are     3 symmetry adapted cartesian basis functions of A2  symmetry.
 There are     8 symmetry adapted cartesian basis functions of B1  symmetry.
 There are     8 symmetry adapted cartesian basis functions of B2  symmetry.
 There are    16 symmetry adapted basis functions of A1  symmetry.
 There are     3 symmetry adapted basis functions of A2  symmetry.
 There are     7 symmetry adapted basis functions of B1  symmetry.
 There are     7 symmetry adapted basis functions of B2  symmetry.
    33 basis functions,    51 primitive gaussians,    36 cartesian basis functions
     5 alpha electrons        4 beta electrons
       nuclear repulsion energy         4.4098100813 Hartrees.
 NAtoms=    2 NActive=    2 NUniq=    2 SFac= 1.00D+00 NAtFMM=   60 NAOKFM=F Big=F
 Integral buffers will be    131072 words long.
 Raffenetti 2 integral format.
 Two-electron integral symmetry is turned on.
 One-electron integrals computed using PRISM.
 NBasis=    33 RedAO= T EigKep=  1.83D-03  NBF=    16     3     7     7
 NBsUse=    33 1.00D-06 EigRej= -1.00D+00 NBFU=    16     3     7     7
 ExpMin= 1.61D-01 ExpMax= 5.48D+03 ExpMxC= 8.25D+02 IAcc=3 IRadAn=         5 AccDes= 0.00D+00
 Harris functional with IExCor=  402 and IRadAn=       5 diagonalized for initial guess.
 HarFok:  IExCor=  402 AccDes= 0.00D+00 IRadAn=         5 IDoV= 1 UseB2=F ITyADJ=14
 ICtDFT=  3500011 ScaDFX=  1.000000  1.000000  1.000000  1.000000
 FoFCou: FMM=F IPFlag=           0 FMFlag=      100000 FMFlg1=           0
         NFxFlg=           0 DoJE=T BraDBF=F KetDBF=T FulRan=T
         wScrn=  0.000000 ICntrl=       500 IOpCl=  0 I1Cent=   200000004 NGrid=           0
         NMat0=    1 NMatS0=      1 NMatT0=    0 NMatD0=    1 NMtDS0=    0 NMtDT0=    0
 Petite list used in FoFCou.
 Initial guess orbital symmetries:
 Alpha Orbitals:
       Occupied  (SG) (SG) (SG) (PI) (PI)
       Virtual   (SG) (SG) (SG) (PI) (PI) (PI) (PI) (DLTA) (DLTA)
                 (SG) (SG) (PI) (PI) (SG) (PI) (PI) (DLTA) (DLTA)
                 (SG) (DLTA) (DLTA) (PHI) (PHI) (PI) (PI) (SG)
                 (SG) (SG)
 Beta  Orbitals:
       Occupied  (SG) (SG) (SG) (PI)
       Virtual   (PI) (SG) (SG) (SG) (PI) (PI) (PI) (PI) (DLTA)
                 (DLTA) (SG) (SG) (PI) (PI) (SG) (PI) (PI) (DLTA)
                 (DLTA) (SG) (DLTA) (DLTA) (PHI) (PHI) (PI) (PI)
                 (SG) (SG) (SG)
 Initial guess <Sx>= 0.0000 <Sy>= 0.0000 <Sz>= 0.5000 <S**2>= 0.7500 S= 0.5000
 Keep R1 and R2 ints in memory in symmetry-blocked form, NReq=15711426.
 Requested convergence on RMS density matrix=1.00D-08 within 128 cycles.
 Requested convergence on MAX density matrix=1.00D-06.
 Requested convergence on             energy=1.00D-06.
 No special actions if energy rises.
 Integral accuracy reduced to 1.0D-05 until final iterations.
 Initial convergence to 1.0D-05 achieved.  Increase integral accuracy.
 SCF Done:  E(UB3LYP) =  -75.7334566150     A.U. after   11 cycles
            NFock= 11  Conv=0.27D-08     -V/T= 2.0043
 <Sx>= 0.0000 <Sy>= 0.0000 <Sz>= 0.5000 <S**2>= 0.7521 S= 0.5010
 <L.S>= 0.000000000000E+00
 Annihilation of the first spin contaminant:
 S**2 before annihilation     0.7521,   after     0.7500

 **********************************************************************

            Population analysis using the SCF Density.

 **********************************************************************

 Orbital symmetries:
 Alpha Orbitals:
       Occupied  (SG) (SG) (SG) (PI) (PI)
       Virtual   (SG) (?A) (?B) (?A) (?B) (?B) (?B) (?A) (?A) (?A)
                 (SG) (PI) (PI) (SG) (PI) (?C) (?C) (PI) (?C) (?D)
                 (?D) (?E) (?E) (?E) (?E) (?D) (SG) (SG)
 Beta  Orbitals:
       Occupied  (SG) (SG) (SG) (PI)
       Virtual   (PI) (SG) (SG) (SG) (?A) (?A) (?A) (?A) (DLTA)
                 (DLTA) (SG) (SG) (PI) (PI) (SG) (PI) (PI) (DLTA)
                 (DLTA) (SG) (DLTA) (DLTA) (PHI) (PHI) (PI) (PI)
                 (SG) (SG) (SG)
 Unable to determine electronic state:  partially filled degenerate orbitals.
 Alpha  occ. eigenvalues --  -19.20132  -1.01006  -0.46680  -0.40382  -0.32912
 Alpha virt. eigenvalues --    0.07968   0.62431   0.79823   0.82819   0.84243
 Alpha virt. eigenvalues --    0.88228   0.91509   0.92557   0.92684   0.98288
 Alpha virt. eigenvalues --    1.89791   2.47563   2.49099   2.85951   4.03166
 Alpha virt. eigenvalues --    4.06762   4.06829   4.09117   4.56732   4.96800
 Alpha virt. eigenvalues --    4.96878   4.98206   4.98238   5.39699   5.44766
 Alpha virt. eigenvalues --    5.71861   6.35510  12.50066
  Beta  occ. eigenvalues --  -19.17698  -0.93981  -0.44109  -0.30361
  Beta virt. eigenvalues --   -0.15260   0.08817   0.63543   0.85076   0.85395
  Beta virt. eigenvalues --    0.87442   0.92152   0.94076   0.96043   0.96465
  Beta virt. eigenvalues --    1.00183   1.90528   2.48498   2.48756   2.87029
  Beta virt. eigenvalues --    4.10460   4.12160   4.15290   4.16526   4.59592
  Beta virt. eigenvalues --    5.01557   5.02048   5.05370   5.05672   5.45525
  Beta virt. eigenvalues --    5.45809   5.75323   6.40591  12.53766
          Condensed to atoms (all electrons):
               1          2
     1  O    8.058528   0.262207
     2  H    0.262207   0.417057
          Atomic-Atomic Spin Densities.
               1          2
     1  O    1.024200   0.000585
     2  H    0.000585  -0.025370
 Mulliken charges and spin densities:
               1          2
     1  O   -0.320736   1.024785
     2  H    0.320736  -0.024785
 Sum of Mulliken charges =   0.00000   1.00000
 Mulliken charges and spin densities with hydrogens summed into heavy atoms:
               1          2
     1  O    0.000000   1.000000
 Electronic spatial extent (au):  <R**2>=             14.8739
 Charge=              0.0000 electrons
 Dipole moment (field-independent basis, Debye):
    X=             -0.0000    Y=             -0.0000    Z=             -1.6107  Tot=              1.6107
 Quadrupole moment (field-independent basis, Debye-Ang):
   XX=             -5.2612   YY=             -6.3639   ZZ=             -4.4460
   XY=             -0.0000   XZ=              0.0000   YZ=              0.0000
 Traceless Quadrupole moment (field-independent basis, Debye-Ang):
   XX=              0.0958   YY=             -1.0068   ZZ=              0.9110
   XY=             -0.0000   XZ=              0.0000   YZ=              0.0000
 Octapole moment (field-independent basis, Debye-Ang**2):
  XXX=             -0.0000  YYY=             -0.0000  ZZZ=             -1.6676  XYY=             -0.0000
  XXY=             -0.0000  XXZ=             -0.1204  XZZ=             -0.0000  YZZ=             -0.0000
  YYZ=             -0.1921  XYZ=             -0.0000
 Hexadecapole moment (field-independent basis, Debye-Ang**3):
 XXXX=             -3.3170 YYYY=             -4.5535 ZZZZ=             -4.9291 XXXY=             -0.0000
 XXXZ=             -0.0000 YYYX=             -0.0000 YYYZ=             -0.0000 ZZZX=             -0.0000
 ZZZY=             -0.0000 XXYY=             -1.3116 XXZZ=             -1.5844 YYZZ=             -1.7996
 XXYZ=             -0.0000 YYXZ=             -0.0000 ZZXY=             -0.0000
 N-N= 4.409810081301D+00 E-N=-1.882436389928D+02  KE= 7.540768465635D+01
 Symmetry A1   KE= 6.815152506610D+01
 Symmetry A2   KE= 6.928910737805D-32
 Symmetry B1   KE= 2.501381163776D+00
 Symmetry B2   KE= 4.754778426473D+00
 Symmetry A1   SP=-1.083402927402D-14
 Symmetry A2   SP= 1.095476187793D-32
 Symmetry B1   SP= 1.000000000000D+00
 Symmetry B2   SP= 4.454086496400D-16
                          Isotropic Fermi Contact Couplings
        Atom                 a.u.       MegaHertz       Gauss      10(-4) cm-1
     1  O(17)              0.11094     -67.25185     -23.99713     -22.43280
     2  H(1)              -0.01374     -61.41729     -21.91522     -20.48660
 --------------------------------------------------------
       Center         ----  Spin Dipole Couplings  ----
                      3XX-RR        3YY-RR        3ZZ-RR
 --------------------------------------------------------
     1   Atom        3.630438     -1.838820     -1.791619
     2   Atom       -0.031298     -0.136235      0.167533
 --------------------------------------------------------
                        XY            XZ            YZ
 --------------------------------------------------------
     1   Atom        0.000000      0.000000      0.000000
     2   Atom       -0.000000     -0.000000      0.000000
 --------------------------------------------------------


 ---------------------------------------------------------------------------------
              Anisotropic Spin Dipole Couplings in Principal Axis System
 ---------------------------------------------------------------------------------

       Atom             a.u.   MegaHertz   Gauss  10(-4) cm-1        Axes

              Baa    -1.8388   133.056    47.478    44.383  0.0000  1.0000 -0.0000
     1 O(17)  Bbb    -1.7916   129.640    46.259    43.243  0.0000  0.0000  1.0000
              Bcc     3.6304  -262.696   -93.736   -87.626  1.0000 -0.0000 -0.0000
 
              Baa    -0.1362   -72.688   -25.937   -24.246  0.0000  1.0000 -0.0000
     2 H(1)   Bbb    -0.0313   -16.699    -5.959    -5.570  1.0000  0.0000  0.0000
              Bcc     0.1675    89.387    31.896    29.816 -0.0000  0.0000  1.0000
 

 ---------------------------------------------------------------------------------

 Calling FoFJK, ICntrl=      2127 FMM=F ISym2X=1 I1Cent= 0 IOpClX= 1 NMat=1 NMatS=1 NMatT=0.
 ***** Axes restored to original set *****
 -------------------------------------------------------------------
 Center     Atomic                   Forces (Hartrees/Bohr)
 Number     Number              X              Y              Z
 -------------------------------------------------------------------
      1        8           0.011898402   -0.010373897    0.000000000
      2        1          -0.011898402    0.010373897   -0.000000000
 -------------------------------------------------------------------
 Cartesian Forces:  Max     0.011898402 RMS     0.009113904

 GradGradGradGradGradGradGradGradGradGradGradGradGradGradGradGradGradGrad
 Berny optimization.
 FormGI is forming the generalized inverse of G from B-inverse, IUseBI=4.
 Internal  Forces:  Max     0.015785744 RMS     0.015785744
 Search for a local minimum.
 Step number   1 out of a maximum of   20
 All quantities printed in internal units (Hartrees-Bohrs-Radians)
 Mixed Optimization -- RFO/linear search
 Second derivative matrix not updated -- first step.
 The second derivative matrix:
                          R1
           R1           0.55473
 ITU=  0
     Eigenvalues ---    0.55473
 RFO step:  Lambda=-4.48842588D-04 EMin= 5.54734041D-01
 Linear search not attempted -- first point.
 Iteration  1 RMS(Cart)=  0.02010546 RMS(Int)=  0.00000000
 Iteration  2 RMS(Cart)=  0.00000000 RMS(Int)=  0.00000000
 ClnCor:  largest displacement from symmetrization is 8.89D-16 for atom     2.
 Variable       Old X    -DE/DX   Delta X   Delta X   Delta X     New X
                                 (Linear)    (Quad)   (Total)
    R1        1.81414   0.01579   0.00000   0.02843   0.02843   1.84257
         Item               Value     Threshold  Converged?
 Maximum Force            0.015786     0.000450     NO 
 RMS     Force            0.015786     0.000300     NO 
 Maximum Displacement     0.010716     0.001800     NO 
 RMS     Displacement     0.020105     0.001200     NO 
 Predicted change in Energy=-2.246027D-04
 GradGradGradGradGradGradGradGradGradGradGradGradGradGradGradGradGradGrad

                          Input orientation:                          
 ---------------------------------------------------------------------
 Center     Atomic      Atomic             Coordinates (Angstroms)
 Number     Number       Type             X           Y           Z
 ---------------------------------------------------------------------
      1          8           0       -7.060766    2.030937   -0.000000
      2          1           0       -7.795701    2.671707    0.000000
 ---------------------------------------------------------------------
 Stoichiometry    HO(2)
 Framework group  C*V[C*(HO)]
 Deg. of freedom     1
 Full point group                 C*V     NOp   4
 Largest Abelian subgroup         C2V     NOp   4
 Largest concise Abelian subgroup C1      NOp   1
                         Standard orientation:                         
 ---------------------------------------------------------------------
 Center     Atomic      Atomic             Coordinates (Angstroms)
 Number     Number       Type             X           Y           Z
 ---------------------------------------------------------------------
      1          8           0       -0.000000   -0.000000    0.108338
      2          1           0        0.000000    0.000000   -0.866708
 ---------------------------------------------------------------------
 Rotational constants (GHZ):           0.0000000         560.6844912         560.6844912
 Standard basis: 6-31G(2df,p) (6D, 7F)
 There are    17 symmetry adapted cartesian basis functions of A1  symmetry.
 There are     3 symmetry adapted cartesian basis functions of A2  symmetry.
 There are     8 symmetry adapted cartesian basis functions of B1  symmetry.
 There are     8 symmetry adapted cartesian basis functions of B2  symmetry.
 There are    16 symmetry adapted basis functions of A1  symmetry.
 There are     3 symmetry adapted basis functions of A2  symmetry.
 There are     7 symmetry adapted basis functions of B1  symmetry.
 There are     7 symmetry adapted basis functions of B2  symmetry.
    33 basis functions,    51 primitive gaussians,    36 cartesian basis functions
     5 alpha electrons        4 beta electrons
       nuclear repulsion energy         4.3417606080 Hartrees.
 NAtoms=    2 NActive=    2 NUniq=    2 SFac= 1.00D+00 NAtFMM=   60 NAOKFM=F Big=F
 Integral buffers will be    131072 words long.
 Raffenetti 2 integral format.
 Two-electron integral symmetry is turned on.
 One-electron integrals computed using PRISM.
 NBasis=    33 RedAO= T EigKep=  1.83D-03  NBF=    16     3     7     7
 NBsUse=    33 1.00D-06 EigRej= -1.00D+00 NBFU=    16     3     7     7
 Initial guess from the checkpoint file:  "/tmp/scratch/4715369/Gau-243512.chk"
 B after Tr=    -0.000000   -0.000000   -0.000000
         Rot=    1.000000    0.000000    0.000000    0.000000 Ang=   0.00 deg.
 Initial guess orbital symmetries:
 Alpha Orbitals:
       Occupied  (SG) (SG) (SG) (PI) (PI)
       Virtual   (SG) (?A) (?B) (?A) (?B) (?B) (?B) (?A) (?A) (?A)
                 (SG) (PI) (PI) (SG) (PI) (?C) (?C) (PI) (?C) (?D)
                 (?D) (?E) (?E) (?E) (?E) (?D) (SG) (SG)
 Beta  Orbitals:
       Occupied  (SG) (SG) (SG) (PI)
       Virtual   (PI) (SG) (SG) (SG) (?A) (?A) (?A) (?A) (DLTA)
                 (DLTA) (SG) (SG) (PI) (PI) (SG) (PI) (PI) (DLTA)
                 (DLTA) (SG) (DLTA) (DLTA) (PHI) (PHI) (PI) (PI)
                 (SG) (SG) (SG)
 Initial guess <Sx>= 0.0000 <Sy>= 0.0000 <Sz>= 0.5000 <S**2>= 0.7521 S= 0.5010
 Keep R1 and R2 ints in memory in symmetry-blocked form, NReq=15711426.
 Requested convergence on RMS density matrix=1.00D-08 within 128 cycles.
 Requested convergence on MAX density matrix=1.00D-06.
 Requested convergence on             energy=1.00D-06.
 No special actions if energy rises.
 SCF Done:  E(UB3LYP) =  -75.7336917807     A.U. after    8 cycles
            NFock=  8  Conv=0.18D-08     -V/T= 2.0047
 <Sx>= 0.0000 <Sy>= 0.0000 <Sz>= 0.5000 <S**2>= 0.7521 S= 0.5011
 <L.S>= 0.000000000000E+00
 Annihilation of the first spin contaminant:
 S**2 before annihilation     0.7521,   after     0.7500
 Calling FoFJK, ICntrl=      2127 FMM=F ISym2X=1 I1Cent= 0 IOpClX= 1 NMat=1 NMatS=1 NMatT=0.
 ***** Axes restored to original set *****
 -------------------------------------------------------------------
 Center     Atomic                   Forces (Hartrees/Bohr)
 Number     Number              X              Y              Z
 -------------------------------------------------------------------
      1        8           0.000760987   -0.000663484    0.000000000
      2        1          -0.000760987    0.000663484   -0.000000000
 -------------------------------------------------------------------
 Cartesian Forces:  Max     0.000760987 RMS     0.000582899

 GradGradGradGradGradGradGradGradGradGradGradGradGradGradGradGradGradGrad
 Berny optimization.
 Using GEDIIS/GDIIS optimizer.
 Internal  Forces:  Max     0.001009610 RMS     0.001009610
 Search for a local minimum.
 Step number   2 out of a maximum of   20
 All quantities printed in internal units (Hartrees-Bohrs-Radians)
 Mixed Optimization -- RFO/linear search
 Update second derivatives using D2CorX and points    1    2
 DE= -2.35D-04 DEPred=-2.25D-04 R= 1.05D+00
 TightC=F SS=  1.41D+00  RLast= 2.84D-02 DXNew= 5.0454D-01 8.5300D-02
 Trust test= 1.05D+00 RLast= 2.84D-02 DXMaxT set to 3.00D-01
 The second derivative matrix:
                          R1
           R1           0.51968
 ITU=  1  0
 Use linear search instead of GDIIS.
     Eigenvalues ---    0.51968
 RFO step:  Lambda= 0.00000000D+00 EMin= 5.19675009D-01
 Quartic linear search produced a step of  0.07228.
 Iteration  1 RMS(Cart)=  0.00145327 RMS(Int)=  0.00000000
 Iteration  2 RMS(Cart)=  0.00000000 RMS(Int)=  0.00000000
 ClnCor:  largest displacement from symmetrization is 8.89D-16 for atom     2.
 Variable       Old X    -DE/DX   Delta X   Delta X   Delta X     New X
                                 (Linear)    (Quad)   (Total)
    R1        1.84257   0.00101   0.00206   0.00000   0.00206   1.84463
         Item               Value     Threshold  Converged?
 Maximum Force            0.001010     0.000450     NO 
 RMS     Force            0.001010     0.000300     NO 
 Maximum Displacement     0.000775     0.001800     YES
 RMS     Displacement     0.001453     0.001200     NO 
 Predicted change in Energy=-9.774347D-07
 GradGradGradGradGradGradGradGradGradGradGradGradGradGradGradGradGradGrad

                          Input orientation:                          
 ---------------------------------------------------------------------
 Center     Atomic      Atomic             Coordinates (Angstroms)
 Number     Number       Type             X           Y           Z
 ---------------------------------------------------------------------
      1          8           0       -7.060356    2.030580   -0.000000
      2          1           0       -7.796111    2.672065    0.000000
 ---------------------------------------------------------------------
 Stoichiometry    HO(2)
 Framework group  C*V[C*(HO)]
 Deg. of freedom     1
 Full point group                 C*V     NOp   4
 Largest Abelian subgroup         C2V     NOp   4
 Largest concise Abelian subgroup C1      NOp   1
                         Standard orientation:                         
 ---------------------------------------------------------------------
 Center     Atomic      Atomic             Coordinates (Angstroms)
 Number     Number       Type             X           Y           Z
 ---------------------------------------------------------------------
      1          8           0        0.000000   -0.000000    0.108459
      2          1           0       -0.000000    0.000000   -0.867675
 ---------------------------------------------------------------------
 Rotational constants (GHZ):           0.0000000         559.4357860         559.4357860
 Standard basis: 6-31G(2df,p) (6D, 7F)
 There are    17 symmetry adapted cartesian basis functions of A1  symmetry.
 There are     3 symmetry adapted cartesian basis functions of A2  symmetry.
 There are     8 symmetry adapted cartesian basis functions of B1  symmetry.
 There are     8 symmetry adapted cartesian basis functions of B2  symmetry.
 There are    16 symmetry adapted basis functions of A1  symmetry.
 There are     3 symmetry adapted basis functions of A2  symmetry.
 There are     7 symmetry adapted basis functions of B1  symmetry.
 There are     7 symmetry adapted basis functions of B2  symmetry.
    33 basis functions,    51 primitive gaussians,    36 cartesian basis functions
     5 alpha electrons        4 beta electrons
       nuclear repulsion energy         4.3369231273 Hartrees.
 NAtoms=    2 NActive=    2 NUniq=    2 SFac= 1.00D+00 NAtFMM=   60 NAOKFM=F Big=F
 Integral buffers will be    131072 words long.
 Raffenetti 2 integral format.
 Two-electron integral symmetry is turned on.
 One-electron integrals computed using PRISM.
 NBasis=    33 RedAO= T EigKep=  1.83D-03  NBF=    16     3     7     7
 NBsUse=    33 1.00D-06 EigRej= -1.00D+00 NBFU=    16     3     7     7
 Initial guess from the checkpoint file:  "/tmp/scratch/4715369/Gau-243512.chk"
 B after Tr=     0.000000    0.000000   -0.000000
         Rot=    1.000000   -0.000000    0.000000   -0.000000 Ang=   0.00 deg.
 Initial guess orbital symmetries:
 Alpha Orbitals:
       Occupied  (SG) (SG) (SG) (PI) (PI)
       Virtual   (SG) (?A) (?B) (?A) (?B) (?B) (?B) (?A) (?A) (?A)
                 (SG) (PI) (PI) (SG) (PI) (?C) (?C) (PI) (?C) (?D)
                 (?D) (?E) (?E) (?E) (?E) (?D) (SG) (SG)
 Beta  Orbitals:
       Occupied  (SG) (SG) (SG) (PI)
       Virtual   (PI) (SG) (SG) (SG) (?A) (?A) (?A) (?A) (DLTA)
                 (DLTA) (SG) (SG) (PI) (PI) (SG) (PI) (PI) (DLTA)
                 (DLTA) (SG) (DLTA) (DLTA) (PHI) (PHI) (PI) (PI)
                 (SG) (SG) (SG)
 Initial guess <Sx>= 0.0000 <Sy>= 0.0000 <Sz>= 0.5000 <S**2>= 0.7521 S= 0.5011
 Keep R1 and R2 ints in memory in symmetry-blocked form, NReq=15711426.
 Requested convergence on RMS density matrix=1.00D-08 within 128 cycles.
 Requested convergence on MAX density matrix=1.00D-06.
 Requested convergence on             energy=1.00D-06.
 No special actions if energy rises.
 SCF Done:  E(UB3LYP) =  -75.7336928164     A.U. after    7 cycles
            NFock=  7  Conv=0.35D-08     -V/T= 2.0047
 <Sx>= 0.0000 <Sy>= 0.0000 <Sz>= 0.5000 <S**2>= 0.7521 S= 0.5011
 <L.S>= 0.000000000000E+00
 Annihilation of the first spin contaminant:
 S**2 before annihilation     0.7521,   after     0.7500
 Calling FoFJK, ICntrl=      2127 FMM=F ISym2X=1 I1Cent= 0 IOpClX= 1 NMat=1 NMatS=1 NMatT=0.
 ***** Axes restored to original set *****
 -------------------------------------------------------------------
 Center     Atomic                   Forces (Hartrees/Bohr)
 Number     Number              X              Y              Z
 -------------------------------------------------------------------
      1        8          -0.000000387    0.000000338    0.000000000
      2        1           0.000000387   -0.000000338   -0.000000000
 -------------------------------------------------------------------
 Cartesian Forces:  Max     0.000000387 RMS     0.000000297

 GradGradGradGradGradGradGradGradGradGradGradGradGradGradGradGradGradGrad
 Berny optimization.
 Using GEDIIS/GDIIS optimizer.
 Internal  Forces:  Max     0.000000514 RMS     0.000000514
 Search for a local minimum.
 Step number   3 out of a maximum of   20
 All quantities printed in internal units (Hartrees-Bohrs-Radians)
 Mixed Optimization -- En-DIIS/RFO-DIIS
 Update second derivatives using D2CorX and points    2    3
 DE= -1.04D-06 DEPred=-9.77D-07 R= 1.06D+00
 TightC=F SS=  1.41D+00  RLast= 2.06D-03 DXNew= 5.0454D-01 6.1657D-03
 Trust test= 1.06D+00 RLast= 2.06D-03 DXMaxT set to 3.00D-01
 The second derivative matrix:
                          R1
           R1           0.49149
 ITU=  1  1
 Use linear search instead of GDIIS.
     Eigenvalues ---    0.49149
 RFO step:  Lambda= 0.00000000D+00 EMin= 4.91488061D-01
 Quartic linear search produced a step of -0.00051.
 Iteration  1 RMS(Cart)=  0.00000074 RMS(Int)=  0.00000000
 ClnCor:  largest displacement from symmetrization is 1.78D-15 for atom     2.
 Variable       Old X    -DE/DX   Delta X   Delta X   Delta X     New X
                                 (Linear)    (Quad)   (Total)
    R1        1.84463  -0.00000  -0.00000   0.00000  -0.00000   1.84462
         Item               Value     Threshold  Converged?
 Maximum Force            0.000001     0.000450     YES
 RMS     Force            0.000001     0.000300     YES
 Maximum Displacement     0.000000     0.001800     YES
 RMS     Displacement     0.000001     0.001200     YES
 Predicted change in Energy=-2.684978D-13
 Optimization completed.
    -- Stationary point found.
                           ----------------------------
                           !   Optimized Parameters   !
                           ! (Angstroms and Degrees)  !
 --------------------------                            --------------------------
 ! Name  Definition              Value          Derivative Info.                !
 --------------------------------------------------------------------------------
 ! R1    R(1,2)                  0.9761         -DE/DX =    0.0                 !
 --------------------------------------------------------------------------------
 GradGradGradGradGradGradGradGradGradGradGradGradGradGradGradGradGradGrad

                          Input orientation:                          
 ---------------------------------------------------------------------
 Center     Atomic      Atomic             Coordinates (Angstroms)
 Number     Number       Type             X           Y           Z
 ---------------------------------------------------------------------
      1          8           0       -7.060356    2.030580   -0.000000
      2          1           0       -7.796111    2.672065    0.000000
 ---------------------------------------------------------------------
 Stoichiometry    HO(2)
 Framework group  C*V[C*(HO)]
 Deg. of freedom     1
 Full point group                 C*V     NOp   4
 Largest Abelian subgroup         C2V     NOp   4
 Largest concise Abelian subgroup C1      NOp   1
                         Standard orientation:                         
 ---------------------------------------------------------------------
 Center     Atomic      Atomic             Coordinates (Angstroms)
 Number     Number       Type             X           Y           Z
 ---------------------------------------------------------------------
      1          8           0        0.000000    0.000000    0.108459
      2          1           0       -0.000000   -0.000000   -0.867675
 ---------------------------------------------------------------------
 Rotational constants (GHZ):           0.0000000         559.4357860         559.4357860

 **********************************************************************

            Population analysis using the SCF Density.

 **********************************************************************

 Orbital symmetries:
 Alpha Orbitals:
       Occupied  (SG) (SG) (SG) (PI) (PI)
       Virtual   (SG) (?A) (?B) (?A) (?B) (?B) (?B) (?A) (?A) (?A)
                 (SG) (PI) (PI) (SG) (PI) (?C) (?C) (PI) (?C) (?D)
                 (?D) (?E) (?E) (?E) (?E) (?D) (SG) (SG)
 Beta  Orbitals:
       Occupied  (SG) (SG) (SG) (PI)
       Virtual   (PI) (SG) (SG) (SG) (?A) (?A) (?A) (?A) (DLTA)
                 (DLTA) (SG) (SG) (PI) (PI) (SG) (PI) (PI) (DLTA)
                 (DLTA) (SG) (DLTA) (DLTA) (PHI) (PHI) (PI) (PI)
                 (SG) (SG) (SG)
 Unable to determine electronic state:  partially filled degenerate orbitals.
 Alpha  occ. eigenvalues --  -19.20246  -1.00563  -0.46452  -0.40313  -0.32840
 Alpha virt. eigenvalues --    0.07490   0.61807   0.79836   0.82751   0.84247
 Alpha virt. eigenvalues --    0.88269   0.91551   0.92598   0.92746   0.98009
 Alpha virt. eigenvalues --    1.87720   2.46217   2.47712   2.83790   4.03059
 Alpha virt. eigenvalues --    4.06801   4.06881   4.09012   4.54481   4.96944
 Alpha virt. eigenvalues --    4.97023   4.98270   4.98302   5.37464   5.42530
 Alpha virt. eigenvalues --    5.71736   6.34099  12.50562
  Beta  occ. eigenvalues --  -19.17807  -0.93496  -0.43913  -0.30287
  Beta virt. eigenvalues --   -0.15181   0.08356   0.62854   0.85049   0.85393
  Beta virt. eigenvalues --    0.87436   0.92199   0.94131   0.96105   0.96527
  Beta virt. eigenvalues --    0.99867   1.88471   2.47084   2.47344   2.84781
  Beta virt. eigenvalues --    4.10367   4.12081   4.15343   4.16578   4.57385
  Beta virt. eigenvalues --    5.01711   5.02205   5.05438   5.05740   5.43290
  Beta virt. eigenvalues --    5.43581   5.75193   6.39166  12.54268
          Condensed to atoms (all electrons):
               1          2
     1  O    8.064750   0.257122
     2  H    0.257122   0.421006
          Atomic-Atomic Spin Densities.
               1          2
     1  O    1.025482   0.000586
     2  H    0.000586  -0.026653
 Mulliken charges and spin densities:
               1          2
     1  O   -0.321872   1.026067
     2  H    0.321872  -0.026067
 Sum of Mulliken charges =  -0.00000   1.00000
 Mulliken charges and spin densities with hydrogens summed into heavy atoms:
               1          2
     1  O   -0.000000   1.000000
 Electronic spatial extent (au):  <R**2>=             14.9780
 Charge=             -0.0000 electrons
 Dipole moment (field-independent basis, Debye):
    X=              0.0000    Y=              0.0000    Z=             -1.6162  Tot=              1.6162
 Quadrupole moment (field-independent basis, Debye-Ang):
   XX=             -5.2773   YY=             -6.3801   ZZ=             -4.4204
   XY=              0.0000   XZ=              0.0000   YZ=              0.0000
 Traceless Quadrupole moment (field-independent basis, Debye-Ang):
   XX=              0.0820   YY=             -1.0208   ZZ=              0.9389
   XY=              0.0000   XZ=              0.0000   YZ=              0.0000
 Octapole moment (field-independent basis, Debye-Ang**2):
  XXX=             -0.0000  YYY=             -0.0000  ZZZ=             -1.6963  XYY=             -0.0000
  XXY=             -0.0000  XXZ=             -0.1078  XZZ=             -0.0000  YZZ=             -0.0000
  YYZ=             -0.1821  XYZ=              0.0000
 Hexadecapole moment (field-independent basis, Debye-Ang**3):
 XXXX=             -3.3355 YYYY=             -4.5723 ZZZZ=             -4.9928 XXXY=              0.0000
 XXXZ=              0.0000 YYYX=              0.0000 YYYZ=              0.0000 ZZZX=              0.0000
 ZZZY=              0.0000 XXYY=             -1.3178 XXZZ=             -1.6126 YYZZ=             -1.8282
 XXYZ=              0.0000 YYXZ=              0.0000 ZZXY=              0.0000
 N-N= 4.336923127274D+00 E-N=-1.880892472994D+02  KE= 7.538101143615D+01
 Symmetry A1   KE= 6.812224525359D+01
 Symmetry A2   KE= 4.889002986999D-31
 Symmetry B1   KE= 2.502378238748D+00
 Symmetry B2   KE= 4.756387943806D+00
 Symmetry A1   SP=-6.437932764556D-15
 Symmetry A2   SP= 2.534491474664D-33
 Symmetry B1   SP= 1.000000000000D+00
 Symmetry B2   SP=-1.401343603372D-15
                          Isotropic Fermi Contact Couplings
        Atom                 a.u.       MegaHertz       Gauss      10(-4) cm-1
     1  O(17)              0.11082     -67.17639     -23.97021     -22.40763
     2  H(1)              -0.01401     -62.60571     -22.33927     -20.88302
 --------------------------------------------------------
       Center         ----  Spin Dipole Couplings  ----
                      3XX-RR        3YY-RR        3ZZ-RR
 --------------------------------------------------------
     1   Atom        3.630164     -1.842296     -1.787868
     2   Atom       -0.032604     -0.130996      0.163600
 --------------------------------------------------------
                        XY            XZ            YZ
 --------------------------------------------------------
     1   Atom        0.000000     -0.000000     -0.000000
     2   Atom       -0.000000     -0.000000     -0.000000
 --------------------------------------------------------


 ---------------------------------------------------------------------------------
              Anisotropic Spin Dipole Couplings in Principal Axis System
 ---------------------------------------------------------------------------------

       Atom             a.u.   MegaHertz   Gauss  10(-4) cm-1        Axes

              Baa    -1.8423   133.307    47.567    44.467 -0.0000  1.0000 -0.0000
     1 O(17)  Bbb    -1.7879   129.369    46.162    43.153  0.0000  0.0000  1.0000
              Bcc     3.6302  -262.676   -93.729   -87.619  1.0000  0.0000 -0.0000
 
              Baa    -0.1310   -69.894   -24.940   -23.314 -0.0000  1.0000  0.0000
     2 H(1)   Bbb    -0.0326   -17.396    -6.207    -5.803  1.0000  0.0000  0.0000
              Bcc     0.1636    87.289    31.147    29.117 -0.0000 -0.0000  1.0000
 

 ---------------------------------------------------------------------------------

 Unable to Open any file for archive entry.
 1\1\GINC-R2I2N2\FOpt\UB3LYP\6-31G(2df,p)\H1O1(2)\YKIM\07-Oct-2020\0\\#
  opt freq b3lyp/6-31g(2df,p)\\Title Card Required\\0,2\O,-7.0603560495
 ,2.0305800534,0.\H,-7.7961106405,2.6720647166,0.\\Version=ES64L-G16Rev
 C.01\HF=-75.7336928\S2=0.752126\S2-1=0.\S2A=0.750002\RMSD=3.506e-09\RM
 SF=2.966e-07\Dipole=-0.4792782,0.4178698,0.\Quadrupole=0.2217143,0.071
 4367,-0.293151,-0.5462999,-0.2668893,-0.3061102\PG=C*V [C*(H1O1)]\\@
 The archive entry for this job was punched.


 NOBODY LOSES ALL THE TIME
 I HAD AN UNCLE NAMED
 SOL WHO WAS A BORN FAILURE AND
 NEARLY EVERYBODY SAID HE SHOULD HAVE GONE
 INTO VAUDEVILLE PERHAPS BECAUSE MY UNCLE SOL COULD
 SING MCCANN HE WAS A DIVER ON XMAS EVE LIKE HELL ITSELF WHICH
 MAY OR MAY NOT ACCOUNT FOR THE FACT THAT MY UNCLE
 SOL INDULGED IN THAT POSSIBLY MOST INEXCUSABLE
 OF ALL TO USE A HIGHFALOOTIN PHRASE
 LUXURIES THAT IS OR TO
 WIT FARMING AND BE
 IT NEEDLESSLY
 ADDED
 MY UNCLE SOL'S FARM     
 FAILED BECAUSE THE CHICKENS
 ATE THE VEGETABLES SO
 MY UNCLE SOL HAD A
 CHICKEN FARM TILL THE
 SKUNKS ATE THE CHICKENS WHEN 
 MY UNCLE SOL
 HAD A SKUNK FARM BUT
 THE SKUNKS CAUGHT COLD AND
 DIED AND SO
 MY UNCLE SOL IMITATED THE
 SKUNKS IN A SUBTLE MANNER
 OR BY DROWNING HIMSELF IN THE WATERTANK
 BUT SOMEBODY WHO'D GIVEN MY UNCLE SOL A VICTOR     
 VICTROLA AND RECORDS WHILE HE LIVED PRESENTED TO
 HIM UPON THE AUSPICIOUS OCCASION OF HIS DECEASE A
 SCRUMPTIOUS NOT TO MENTION SPLENDIFEROUS FUNERAL WITH
 TALL BOYS IN BLACK GLOVES AND FLOWERS AND EVERYTHING AND
 I REMEMBER WE ALL CRIED LIKE THE MISSOURI
 WHEN MY UNCLE SOL'S COFFIN LURCHED BECAUSE     
 SOMEBODY PRESSED A BUTTON
 (AND DOWN WENT
 MY UNCLE
 SOL
 AND STARTED A WORM FARM)
           E. E. CUMMINGS
 Job cpu time:       0 days  0 hours  1 minutes  2.9 seconds.
 Elapsed time:       0 days  0 hours  0 minutes  4.3 seconds.
 File lengths (MBytes):  RWF=      6 Int=      0 D2E=      0 Chk=      1 Scr=      1
 Normal termination of Gaussian 16 at Wed Oct  7 21:22:17 2020.
 Link1:  Proceeding to internal job step number  2.
 ----------------------------------------------------------------------
 #N Geom=AllCheck Guess=TCheck SCRF=Check GenChk UB3LYP/6-31G(2df,p) Fr
 eq
 ----------------------------------------------------------------------
 1/4=180224,10=4,29=7,30=1,38=1,40=1/1,3;
 2/4=180224,12=2,40=1/2;
 3/4=180224,5=1,6=6,7=104,11=2,14=-4,25=1,30=1,70=2,71=2,74=-5,116=2,140=1/1,2,3;
 4/4=180224,5=101/1;
 5/4=180224,5=2,38=6,98=1/2;
 8/4=180224,6=4,10=90,11=11/1;
 11/4=180224,6=1,8=1,9=11,15=111,16=1/1,2,10;
 10/4=180224,6=1/2;
 6/4=180224,7=2,8=2,9=2,10=2,28=1/1;
 7/4=180224,8=1,10=1,25=1/1,2,3,16;
 1/4=180224,10=4,30=1/3;
 99/4=180224/99;
 Structure from the checkpoint file:  "/tmp/scratch/4715369/Gau-243512.chk"
 -------------------
 Title Card Required
 -------------------
 Charge =  0 Multiplicity = 2
 Redundant internal coordinates found in file.  (old form).
 O,0,-7.0603560495,2.0305800534,0.
 H,0,-7.7961106405,2.6720647166,0.
 Recover connectivity data from disk.

 GradGradGradGradGradGradGradGradGradGradGradGradGradGradGradGradGradGrad
 Berny optimization.
 Initialization pass.
                           ----------------------------
                           !    Initial Parameters    !
                           ! (Angstroms and Degrees)  !
 --------------------------                            --------------------------
 ! Name  Definition              Value          Derivative Info.                !
 --------------------------------------------------------------------------------
 ! R1    R(1,2)                  0.9761         calculate D2E/DX2 analytically  !
 --------------------------------------------------------------------------------
 Trust Radius=3.00D-01 FncErr=1.00D-07 GrdErr=1.00D-07 EigMax=2.50D+02 EigMin=1.00D-04
 Number of steps in this run=      2 maximum allowed number of steps=      2.
 GradGradGradGradGradGradGradGradGradGradGradGradGradGradGradGradGradGrad

                          Input orientation:                          
 ---------------------------------------------------------------------
 Center     Atomic      Atomic             Coordinates (Angstroms)
 Number     Number       Type             X           Y           Z
 ---------------------------------------------------------------------
      1          8           0       -7.060356    2.030580   -0.000000
      2          1           0       -7.796111    2.672065    0.000000
 ---------------------------------------------------------------------
 Stoichiometry    HO(2)
 Framework group  C*V[C*(HO)]
 Deg. of freedom     1
 Full point group                 C*V     NOp   4
 Largest Abelian subgroup         C2V     NOp   4
 Largest concise Abelian subgroup C1      NOp   1
                         Standard orientation:                         
 ---------------------------------------------------------------------
 Center     Atomic      Atomic             Coordinates (Angstroms)
 Number     Number       Type             X           Y           Z
 ---------------------------------------------------------------------
      1          8           0       -0.000000    0.000000    0.108459
      2          1           0        0.000000   -0.000000   -0.867675
 ---------------------------------------------------------------------
 Rotational constants (GHZ):           0.0000000         559.4357860         559.4357860
 Standard basis: 6-31G(2df,p) (6D, 7F)
 There are    17 symmetry adapted cartesian basis functions of A1  symmetry.
 There are     3 symmetry adapted cartesian basis functions of A2  symmetry.
 There are     8 symmetry adapted cartesian basis functions of B1  symmetry.
 There are     8 symmetry adapted cartesian basis functions of B2  symmetry.
 There are    16 symmetry adapted basis functions of A1  symmetry.
 There are     3 symmetry adapted basis functions of A2  symmetry.
 There are     7 symmetry adapted basis functions of B1  symmetry.
 There are     7 symmetry adapted basis functions of B2  symmetry.
    33 basis functions,    51 primitive gaussians,    36 cartesian basis functions
     5 alpha electrons        4 beta electrons
       nuclear repulsion energy         4.3369231273 Hartrees.
 NAtoms=    2 NActive=    2 NUniq=    2 SFac= 1.00D+00 NAtFMM=   60 NAOKFM=F Big=F
 Integral buffers will be    131072 words long.
 Raffenetti 2 integral format.
 Two-electron integral symmetry is turned on.
 One-electron integrals computed using PRISM.
 NBasis=    33 RedAO= T EigKep=  1.83D-03  NBF=    16     3     7     7
 NBsUse=    33 1.00D-06 EigRej= -1.00D+00 NBFU=    16     3     7     7
 Initial guess from the checkpoint file:  "/tmp/scratch/4715369/Gau-243512.chk"
 B after Tr=    -0.000000   -0.000000    0.000000
         Rot=    1.000000    0.000000   -0.000000    0.000000 Ang=   0.00 deg.
 Initial guess orbital symmetries:
 Alpha Orbitals:
       Occupied  (SG) (SG) (SG) (PI) (PI)
       Virtual   (SG) (?A) (?B) (?A) (?B) (?B) (?B) (?A) (?A) (?A)
                 (SG) (PI) (PI) (SG) (PI) (?C) (?C) (PI) (?C) (?D)
                 (?D) (?E) (?E) (?E) (?E) (?D) (SG) (SG)
 Beta  Orbitals:
       Occupied  (SG) (SG) (SG) (PI)
       Virtual   (PI) (SG) (SG) (SG) (?A) (?A) (?A) (?A) (DLTA)
                 (DLTA) (SG) (SG) (PI) (PI) (SG) (PI) (PI) (DLTA)
                 (DLTA) (SG) (DLTA) (DLTA) (PHI) (PHI) (PI) (PI)
                 (SG) (SG) (SG)
 Initial guess <Sx>= 0.0000 <Sy>= 0.0000 <Sz>= 0.5000 <S**2>= 0.7521 S= 0.5011
 Keep R1 and R2 ints in memory in symmetry-blocked form, NReq=15711426.
 Requested convergence on RMS density matrix=1.00D-08 within 128 cycles.
 Requested convergence on MAX density matrix=1.00D-06.
 Requested convergence on             energy=1.00D-06.
 No special actions if energy rises.
 SCF Done:  E(UB3LYP) =  -75.7336928164     A.U. after    1 cycles
            NFock=  1  Conv=0.15D-09     -V/T= 2.0047
 <Sx>= 0.0000 <Sy>= 0.0000 <Sz>= 0.5000 <S**2>= 0.7521 S= 0.5011
 <L.S>= 0.000000000000E+00
 Annihilation of the first spin contaminant:
 S**2 before annihilation     0.7521,   after     0.7500
 DoSCS=F DFT=T ScalE2(SS,OS)=  1.000000  1.000000
 Range of M.O.s used for correlation:     1    33
 NBasis=    33 NAE=     5 NBE=     4 NFC=     0 NFV=     0
 NROrb=     33 NOA=     5 NOB=     4 NVA=    28 NVB=    29

 **** Warning!!: The largest alpha MO coefficient is  0.16557149D+02


 **** Warning!!: The largest beta MO coefficient is  0.16534931D+02

 Symmetrizing basis deriv contribution to polar:
 IMax=3 JMax=2 DiffMx= 0.00D+00
 G2DrvN: will do     3 centers at a time, making    1 passes.
 Calling FoFCou, ICntrl=  3107 FMM=F I1Cent=   0 AccDes= 0.00D+00.
 End of G2Drv F.D. properties file   721 does not exist.
 End of G2Drv F.D. properties file   722 does not exist.
 End of G2Drv F.D. properties file   788 does not exist.
          IDoAtm=11
          Differentiating once with respect to electric field.
                with respect to dipole field.
          Differentiating once with respect to nuclear coordinates.
 Keep R1 and R2 ints in memory in symmetry-blocked form, NReq=15650358.
          There are     9 degrees of freedom in the 1st order CPHF.  IDoFFX=6 NUNeed=     3.
      6 vectors produced by pass  0 Test12= 2.84D-15 1.11D-08 XBig12= 6.48D+00 1.61D+00.
 AX will form     6 AO Fock derivatives at one time.
      6 vectors produced by pass  1 Test12= 2.84D-15 1.11D-08 XBig12= 6.21D-01 2.72D-01.
      6 vectors produced by pass  2 Test12= 2.84D-15 1.11D-08 XBig12= 6.79D-03 3.15D-02.
      6 vectors produced by pass  3 Test12= 2.84D-15 1.11D-08 XBig12= 7.16D-05 4.72D-03.
      6 vectors produced by pass  4 Test12= 2.84D-15 1.11D-08 XBig12= 7.77D-07 3.25D-04.
      6 vectors produced by pass  5 Test12= 2.84D-15 1.11D-08 XBig12= 2.02D-09 2.53D-05.
      4 vectors produced by pass  6 Test12= 2.84D-15 1.11D-08 XBig12= 8.47D-12 1.43D-06.
      2 vectors produced by pass  7 Test12= 2.84D-15 1.11D-08 XBig12= 4.40D-14 9.12D-08.
 InvSVY:  IOpt=1 It=  1 EMax= 2.22D-16
 Solved reduced A of dimension    42 with     6 vectors.
 Isotropic polarizability for W=    0.000000        4.86 Bohr**3.
 End of Minotr F.D. properties file   721 does not exist.
 End of Minotr F.D. properties file   722 does not exist.
 End of Minotr F.D. properties file   788 does not exist.

 **********************************************************************

            Population analysis using the SCF Density.

 **********************************************************************

 Orbital symmetries:
 Alpha Orbitals:
       Occupied  (SG) (SG) (SG) (PI) (PI)
       Virtual   (SG) (?A) (?B) (?A) (?B) (?B) (?B) (?A) (?A) (?A)
                 (SG) (PI) (PI) (SG) (PI) (?C) (?C) (PI) (?C) (?D)
                 (?D) (?E) (?E) (?E) (?E) (?D) (SG) (SG)
 Beta  Orbitals:
       Occupied  (SG) (SG) (SG) (PI)
       Virtual   (PI) (SG) (SG) (SG) (?A) (?A) (?A) (?A) (DLTA)
                 (DLTA) (SG) (SG) (PI) (PI) (SG) (PI) (PI) (DLTA)
                 (DLTA) (SG) (DLTA) (DLTA) (PHI) (PHI) (PI) (PI)
                 (SG) (SG) (SG)
 Unable to determine electronic state:  partially filled degenerate orbitals.
 Alpha  occ. eigenvalues --  -19.20246  -1.00563  -0.46452  -0.40313  -0.32840
 Alpha virt. eigenvalues --    0.07490   0.61807   0.79836   0.82751   0.84247
 Alpha virt. eigenvalues --    0.88269   0.91551   0.92598   0.92746   0.98009
 Alpha virt. eigenvalues --    1.87720   2.46217   2.47712   2.83790   4.03059
 Alpha virt. eigenvalues --    4.06801   4.06881   4.09012   4.54481   4.96944
 Alpha virt. eigenvalues --    4.97023   4.98270   4.98302   5.37464   5.42530
 Alpha virt. eigenvalues --    5.71736   6.34099  12.50562
  Beta  occ. eigenvalues --  -19.17807  -0.93496  -0.43913  -0.30287
  Beta virt. eigenvalues --   -0.15181   0.08356   0.62854   0.85049   0.85393
  Beta virt. eigenvalues --    0.87436   0.92199   0.94131   0.96105   0.96527
  Beta virt. eigenvalues --    0.99867   1.88471   2.47084   2.47344   2.84781
  Beta virt. eigenvalues --    4.10367   4.12081   4.15343   4.16578   4.57385
  Beta virt. eigenvalues --    5.01711   5.02205   5.05438   5.05740   5.43290
  Beta virt. eigenvalues --    5.43581   5.75193   6.39166  12.54268
          Condensed to atoms (all electrons):
               1          2
     1  O    8.064750   0.257122
     2  H    0.257122   0.421006
          Atomic-Atomic Spin Densities.
               1          2
     1  O    1.025482   0.000586
     2  H    0.000586  -0.026653
 Mulliken charges and spin densities:
               1          2
     1  O   -0.321872   1.026067
     2  H    0.321872  -0.026067
 Sum of Mulliken charges =   0.00000   1.00000
 Mulliken charges and spin densities with hydrogens summed into heavy atoms:
               1          2
     1  O    0.000000   1.000000
 APT charges:
               1
     1  O   -0.252790
     2  H    0.252790
 Sum of APT charges =  -0.00000
 APT charges with hydrogens summed into heavy atoms:
               1
     1  O   -0.000000
 Electronic spatial extent (au):  <R**2>=             14.9780
 Charge=             -0.0000 electrons
 Dipole moment (field-independent basis, Debye):
    X=              0.0000    Y=             -0.0000    Z=             -1.6162  Tot=              1.6162
 Quadrupole moment (field-independent basis, Debye-Ang):
   XX=             -5.2773   YY=             -6.3801   ZZ=             -4.4204
   XY=             -0.0000   XZ=              0.0000   YZ=             -0.0000
 Traceless Quadrupole moment (field-independent basis, Debye-Ang):
   XX=              0.0820   YY=             -1.0208   ZZ=              0.9389
   XY=             -0.0000   XZ=              0.0000   YZ=             -0.0000
 Octapole moment (field-independent basis, Debye-Ang**2):
  XXX=              0.0000  YYY=              0.0000  ZZZ=             -1.6963  XYY=              0.0000
  XXY=              0.0000  XXZ=             -0.1078  XZZ=              0.0000  YZZ=             -0.0000
  YYZ=             -0.1821  XYZ=             -0.0000
 Hexadecapole moment (field-independent basis, Debye-Ang**3):
 XXXX=             -3.3355 YYYY=             -4.5723 ZZZZ=             -4.9928 XXXY=             -0.0000
 XXXZ=              0.0000 YYYX=             -0.0000 YYYZ=             -0.0000 ZZZX=              0.0000
 ZZZY=             -0.0000 XXYY=             -1.3178 XXZZ=             -1.6126 YYZZ=             -1.8282
 XXYZ=             -0.0000 YYXZ=              0.0000 ZZXY=             -0.0000
 N-N= 4.336923127274D+00 E-N=-1.880892472561D+02  KE= 7.538101141602D+01
 Symmetry A1   KE= 6.812224524608D+01
 Symmetry A2   KE= 5.490865662669D-31
 Symmetry B1   KE= 2.502378229657D+00
 Symmetry B2   KE= 4.756387940284D+00
 Symmetry A1   SP=-1.627468092562D-15
 Symmetry A2   SP= 1.041351826396D-32
 Symmetry B1   SP= 1.000000000000D+00
 Symmetry B2   SP=-5.251487751555D-17
  Exact polarizability:       3.934       0.000       3.819      -0.000      -0.000       6.834
 Approx polarizability:       4.865      -0.000       4.320      -0.000       0.000       8.853
                          Isotropic Fermi Contact Couplings
        Atom                 a.u.       MegaHertz       Gauss      10(-4) cm-1
     1  O(17)              0.11082     -67.17639     -23.97020     -22.40763
     2  H(1)              -0.01401     -62.60571     -22.33928     -20.88302
 --------------------------------------------------------
       Center         ----  Spin Dipole Couplings  ----
                      3XX-RR        3YY-RR        3ZZ-RR
 --------------------------------------------------------
     1   Atom        3.630164     -1.842296     -1.787868
     2   Atom       -0.032604     -0.130996      0.163600
 --------------------------------------------------------
                        XY            XZ            YZ
 --------------------------------------------------------
     1   Atom       -0.000000     -0.000000      0.000000
     2   Atom        0.000000      0.000000      0.000000
 --------------------------------------------------------


 ---------------------------------------------------------------------------------
              Anisotropic Spin Dipole Couplings in Principal Axis System
 ---------------------------------------------------------------------------------

       Atom             a.u.   MegaHertz   Gauss  10(-4) cm-1        Axes

              Baa    -1.8423   133.307    47.567    44.467  0.0000  1.0000  0.0000
     1 O(17)  Bbb    -1.7879   129.369    46.162    43.153  0.0000  0.0000  1.0000
              Bcc     3.6302  -262.676   -93.729   -87.619  1.0000 -0.0000  0.0000
 
              Baa    -0.1310   -69.894   -24.940   -23.314  0.0000  1.0000 -0.0000
     2 H(1)   Bbb    -0.0326   -17.396    -6.207    -5.803  1.0000 -0.0000 -0.0000
              Bcc     0.1636    87.289    31.147    29.117  0.0000  0.0000  1.0000
 

 ---------------------------------------------------------------------------------

 Calling FoFJK, ICntrl=    100127 FMM=F ISym2X=1 I1Cent= 0 IOpClX= 1 NMat=1 NMatS=1 NMatT=0.
 Full mass-weighted force constant matrix:
 Low frequencies ---   -5.4362   -0.0019   -0.0005    0.0009   24.5983 3694.2292
 Diagonal vibrational polarizability:
        0.0000000       0.0000000       0.0096568
 Harmonic frequencies (cm**-1), IR intensities (KM/Mole), Raman scattering
 activities (A**4/AMU), depolarization ratios for plane and unpolarized
 incident light, reduced masses (AMU), force constants (mDyne/A),
 and normal coordinates:
                      1
                     SG
 Frequencies --   3694.2292
 Red. masses --      1.0671
 Frc consts  --      8.5802
 IR Inten    --      4.8972
  Atom  AN      X      Y      Z
     1   8     0.00  -0.00  -0.06
     2   1    -0.00   0.00   1.00

 -------------------
 - Thermochemistry -
 -------------------
 Temperature   298.150 Kelvin.  Pressure   1.00000 Atm.
 Atom     1 has atomic number  8 and mass  15.99491
 Atom     2 has atomic number  1 and mass   1.00783
 Molecular mass:    17.00274 amu.
 Principal axes and moments of inertia in atomic units:
                           1         2         3
     Eigenvalues --     0.00000   3.22600   3.22600
           X           -0.00000  -0.61697   0.78699
           Y            0.00000   0.78699   0.61697
           Z            1.00000  -0.00000   0.00000
 This molecule is a prolate symmetric top.
 Rotational symmetry number  1.
 Rotational temperature (Kelvin)     26.84868
 Rotational constant (GHZ):         559.435786
 Zero-point vibrational energy      22096.4 (Joules/Mol)
                                    5.28117 (Kcal/Mol)
 Vibrational temperatures:   5315.17
          (Kelvin)
 
 Zero-point correction=                           0.008416 (Hartree/Particle)
 Thermal correction to Energy=                    0.010777
 Thermal correction to Enthalpy=                  0.011721
 Thermal correction to Gibbs Free Energy=        -0.008513
 Sum of electronic and zero-point Energies=            -75.725277
 Sum of electronic and thermal Energies=               -75.722916
 Sum of electronic and thermal Enthalpies=             -75.721972
 Sum of electronic and thermal Free Energies=          -75.742206
 
                     E (Thermal)             CV                S
                      KCal/Mol        Cal/Mol-Kelvin    Cal/Mol-Kelvin
 Total                    6.762              4.968             42.585
 Electronic               0.000              0.000              1.377
 Translational            0.889              2.981             34.437
 Rotational               0.592              1.987              6.771
 Vibrational              5.281              0.000              0.000
                       Q            Log10(Q)             Ln(Q)
 Total Bot       0.823479D+04          3.915652          9.016123
 Total V=0       0.612032D+08          7.786774         17.929710
 Vib (Bot)       0.134548D-03         -3.871122         -8.913587
 Vib (V=0)       0.100000D+01          0.000000          0.000000
 Electronic      0.200000D+01          0.301030          0.693147
 Translational   0.275570D+07          6.440232         14.829183
 Rotational      0.111048D+02          1.045512          2.407380
 ***** Axes restored to original set *****
 -------------------------------------------------------------------
 Center     Atomic                   Forces (Hartrees/Bohr)
 Number     Number              X              Y              Z
 -------------------------------------------------------------------
      1        8          -0.000000386    0.000000336   -0.000000000
      2        1           0.000000386   -0.000000336    0.000000000
 -------------------------------------------------------------------
 Cartesian Forces:  Max     0.000000386 RMS     0.000000295
 FormGI is forming the generalized inverse of G from B-inverse, IUseBI=4.

 GradGradGradGradGradGradGradGradGradGradGradGradGradGradGradGradGradGrad
 Berny optimization.
 Internal  Forces:  Max     0.000000512 RMS     0.000000512
 Search for a local minimum.
 Step number   1 out of a maximum of    2
 All quantities printed in internal units (Hartrees-Bohrs-Radians)
 Second derivative matrix not updated -- analytic derivatives used.
 The second derivative matrix:
                          R1
           R1           0.48965
 ITU=  0
     Eigenvalues ---    0.48965
 Angle between quadratic step and forces=  90.00 degrees.
 Linear search not attempted -- first point.
 Iteration  1 RMS(Cart)=  0.00000074 RMS(Int)=  0.00000000
 ClnCor:  largest displacement from symmetrization is 8.37D-17 for atom     2.
 Variable       Old X    -DE/DX   Delta X   Delta X   Delta X     New X
                                 (Linear)    (Quad)   (Total)
    R1        1.84463  -0.00000   0.00000  -0.00000  -0.00000   1.84462
         Item               Value     Threshold  Converged?
 Maximum Force            0.000001     0.000450     YES
 RMS     Force            0.000001     0.000300     YES
 Maximum Displacement     0.000000     0.001800     YES
 RMS     Displacement     0.000001     0.001200     YES
 Predicted change in Energy=-2.674803D-13
 Optimization completed.
    -- Stationary point found.
                           ----------------------------
                           !   Optimized Parameters   !
                           ! (Angstroms and Degrees)  !
 --------------------------                            --------------------------
 ! Name  Definition              Value          Derivative Info.                !
 --------------------------------------------------------------------------------
 ! R1    R(1,2)                  0.9761         -DE/DX =    0.0                 !
 --------------------------------------------------------------------------------
 GradGradGradGradGradGradGradGradGradGradGradGradGradGradGradGradGradGrad


 ----------------------------------------------------------------------

 Electric dipole moment (input orientation):
 (Debye = 10**-18 statcoulomb cm , SI units = C m)
                  (au)            (Debye)         (10**-30 SI)
   Tot        0.635864D+00      0.161620D+01      0.539108D+01
   x         -0.479278D+00     -0.121820D+01     -0.406349D+01
   y          0.417870D+00      0.106212D+01      0.354285D+01
   z          0.000000D+00      0.000000D+00      0.000000D+00

 Dipole polarizability, Alpha (input orientation).
 (esu units = cm**3 , SI units = C**2 m**2 J**-1)
 Alpha(0;0):
               (au)            (10**-24 esu)      (10**-40 SI)
   iso        0.486238D+01      0.720530D+00      0.801698D+00
   aniso      0.295856D+01      0.438414D+00      0.487801D+00
   xx         0.555325D+01      0.822906D+00      0.915607D+00
   yx        -0.146854D+01     -0.217615D+00     -0.242130D+00
   yy         0.514928D+01      0.763044D+00      0.849001D+00
   zx        -0.375489D-01     -0.556418D-02     -0.619098D-02
   zy        -0.430670D-01     -0.638187D-02     -0.710079D-02
   zz         0.388461D+01      0.575640D+00      0.640486D+00

 ----------------------------------------------------------------------

 Dipole orientation:
     8         -3.86135362         -4.42880215         12.57826508
     1         -3.86135362         -4.42880215         14.42289081

 Electric dipole moment (dipole orientation):
 (Debye = 10**-18 statcoulomb cm , SI units = C m)
                  (au)            (Debye)         (10**-30 SI)
   Tot        0.635864D+00      0.161620D+01      0.539108D+01
   x          0.000000D+00      0.000000D+00      0.000000D+00
   y          0.000000D+00      0.000000D+00      0.000000D+00
   z          0.635864D+00      0.161620D+01      0.539108D+01

 Dipole polarizability, Alpha (dipole orientation).
 (esu units = cm**3 , SI units = C**2 m**2 J**-1)
 Alpha(0;0):
               (au)            (10**-24 esu)      (10**-40 SI)
   iso        0.486238D+01      0.720530D+00      0.801698D+00
   aniso      0.295856D+01      0.438414D+00      0.487801D+00
   xx         0.382122D+01      0.566246D+00      0.630034D+00
   yx        -0.155709D-01     -0.230737D-02     -0.256730D-02
   yy         0.393229D+01      0.582705D+00      0.648347D+00
   zx         0.000000D+00      0.000000D+00      0.000000D+00
   zy         0.000000D+00      0.000000D+00      0.000000D+00
   zz         0.683363D+01      0.101264D+01      0.112671D+01

 ----------------------------------------------------------------------
 Unable to Open any file for archive entry.
 1\1\GINC-R2I2N2\Freq\UB3LYP\6-31G(2df,p)\H1O1(2)\YKIM\07-Oct-2020\0\\#
 N Geom=AllCheck Guess=TCheck SCRF=Check GenChk UB3LYP/6-31G(2df,p) Fre
 q\\Title Card Required\\0,2\O,-7.0603560495,2.0305800534,0.\H,-7.79611
 06405,2.6720647166,0.\\Version=ES64L-G16RevC.01\HF=-75.7336928\S2=0.75
 2126\S2-1=0.\S2A=0.750002\RMSD=1.526e-10\RMSF=2.955e-07\ZeroPoint=0.00
 84161\Thermal=0.0107765\ETot=-75.7229163\HTot=-75.7219721\GTot=-75.742
 2057\Dipole=-0.4792782,0.4178698,0.\DipoleDeriv=-0.1880658,-0.1365501,
 -0.0000133,-0.1365501,-0.2256284,-0.0000152,-0.0000133,-0.0000152,-0.3
 446772,0.1880658,0.1365501,0.0000133,0.1365501,0.2256284,0.0000152,0.0
 000133,0.0000152,0.3446772\Polar=5.5532472,-1.4685413,5.1492769,-0.037
 5489,-0.043067,3.8846127\Quadrupole=0.2217143,0.0714367,-0.293151,-0.5
 462999,-0.2668893,-0.3061102\PG=C*V [C*(H1O1)]\NImag=0\\0.27818927,-0.
 24253810,0.21147123,-0.00000741,-0.00000850,0.00001188,-0.27818927,0.2
 4253810,0.00000741,0.27818927,0.24253810,-0.21147123,0.00000850,-0.242
 53810,0.21147123,0.00000741,0.00000850,-0.00001188,-0.00000741,-0.0000
 0850,0.00001188\\0.00000039,-0.00000034,0.,-0.00000039,0.00000034,0.\\
 \@
 The archive entry for this job was punched.


 IF I HAVE SEEN FARTHER, IT IS BY STANDING ON THE
 SHOULDERS OF GIANTS. -- SIR ISAAC NEWTON
 Job cpu time:       0 days  0 hours  0 minutes 49.2 seconds.
 Elapsed time:       0 days  0 hours  0 minutes  3.1 seconds.
 File lengths (MBytes):  RWF=      6 Int=      0 D2E=      0 Chk=      1 Scr=      1
 Normal termination of Gaussian 16 at Wed Oct  7 21:22:20 2020.
